/*--------------------------------*- C++ -*----------------------------------*\
| =========                 |                                                 |
| \\      /  F ield         | OpenFOAM: The Open Source CFD Toolbox           |
|  \\    /   O peration     | Version:  2312                                  |
|   \\  /    A nd           | Website:  www.openfoam.com                      |
|    \\/     M anipulation  |                                                 |
\*---------------------------------------------------------------------------*/
FoamFile
{
    version     2.0;
    format      ascii;
    arch        "LSB;label=32;scalar=64";
    class       volScalarField;
    location    "950";
    object      turbulenceProperties:nut;
}
// * * * * * * * * * * * * * * * * * * * * * * * * * * * * * * * * * * * * * //

dimensions      [0 2 -1 0 0 0 0];

internalField   nonuniform List<scalar> 
11040
(
3.79202e-05
5.48805e-05
1.54401e-05
4.85636e-05
0.000187986
0.000181064
0.000171388
0.000161235
0.000148618
0.000140772
0.000132699
0.000125645
0.000119267
0.000114257
0.000109937
0.000107604
0.000107317
0.000109032
0.000112278
0.000116841
0.0001228
0.000129944
0.000137986
0.000146721
0.000156254
0.00016756
0.000180522
0.000193225
0.00020512
0.000215626
0.000224125
0.000229993
0.000234123
0.000241139
0.000260676
0.000247577
0.00017111
0.000180702
0.000199679
0.000219818
0.000294482
4.20081e-06
3.69259e-05
5.59747e-05
0.000143168
0.000601351
0.000627799
0.000551916
0.000508112
0.000442034
0.000406511
0.000370034
0.000341535
0.000314737
0.000294525
0.000275539
0.000262355
0.000255886
0.000255173
0.000257501
0.000261603
0.000267624
0.000275607
0.000283943
0.000291461
0.000299098
0.000314401
0.000342054
0.000374178
0.000410359
0.000450703
0.000495441
0.000544927
0.000598346
0.000657487
0.000724571
0.000792498
0.00086133
0.000952772
0.00106154
0.00114927
0.00161211
5.52415e-06
9.45179e-06
3.01661e-05
6.52652e-05
0.000413177
0.000965357
0.00118632
0.00114625
0.00100373
0.000928905
0.000846411
0.000785426
0.000725817
0.000682314
0.000640354
0.000606955
0.000581437
0.000561906
0.00055052
0.000546282
0.000550617
0.000564541
0.000588776
0.000624172
0.000670797
0.000728456
0.000796919
0.00087567
0.00096435
0.00106235
0.00116873
0.00128279
0.00140402
0.00153308
0.00167108
0.00181839
0.00198108
0.00218163
0.00242575
0.00266552
0.00348835
6.48185e-06
5.16619e-06
1.06822e-05
1.12476e-05
0.000139258
0.000596382
0.00130513
0.00170766
0.0017775
0.00168691
0.00154332
0.0014434
0.00133878
0.00126195
0.00118674
0.00112428
0.00107824
0.00104169
0.00101983
0.00101097
0.00101691
0.00104064
0.00108469
0.00115021
0.00123663
0.00134282
0.00146785
0.00161068
0.0017704
0.00194595
0.00213576
0.00233844
0.00255286
0.00277932
0.00301871
0.00327374
0.00355662
0.00389868
0.00431821
0.00477432
0.00593654
6.20208e-06
5.766e-06
6.4066e-06
5.4222e-06
4.87174e-06
0.000177567
0.000709709
0.00156213
0.00225518
0.00246491
0.00247651
0.0023698
0.00220608
0.00208885
0.00197472
0.00187183
0.00179948
0.00173983
0.00170311
0.00168765
0.00169356
0.0017264
0.00179226
0.00189312
0.00202813
0.00219592
0.00239475
0.00262237
0.00287673
0.0031559
0.00345679
0.00377656
0.0041131
0.00446612
0.00483623
0.00522753
0.00565655
0.0061691
0.00679876
0.00752909
0.0089963
6.09392e-06
6.18661e-06
5.89262e-06
6.59818e-06
1.69994e-06
9.11565e-07
0.000173017
0.000732218
0.00171717
0.00273295
0.00320709
0.00337647
0.00336426
0.00325501
0.00307796
0.00291562
0.0028086
0.00271694
0.00265722
0.00263178
0.00263516
0.00267486
0.00276391
0.00290614
0.00310035
0.00334532
0.00363839
0.00397525
0.00435154
0.00476417
0.00520755
0.0056763
0.0061665
0.00667683
0.0072069
0.00776146
0.00836171
0.00906615
0.00993405
0.0109837
0.0127707
6.10464e-06
6.13726e-06
6.01331e-06
6.35278e-06
5.92947e-06
4.29126e-07
3.49947e-09
0.000120392
0.000661573
0.00171212
0.00301658
0.00395442
0.00433336
0.00447742
0.00446911
0.00436752
0.00421839
0.00406618
0.00397059
0.00393079
0.00392965
0.00397198
0.00408271
0.00427033
0.00453274
0.00486977
0.00527845
0.00575167
0.00628008
0.00685947
0.00748048
0.00813317
0.00881051
0.00950954
0.0102276
0.0109685
0.0117577
0.0126646
0.0137837
0.0151766
0.0173283
6.11443e-06
6.11181e-06
6.13176e-06
6.04855e-06
6.56479e-06
6.04898e-06
1.86406e-08
2.99801e-11
5.28934e-05
0.000514549
0.00152567
0.00302844
0.00449582
0.00531071
0.00567798
0.00582303
0.00584927
0.00579894
0.0057292
0.00567177
0.00566839
0.00572453
0.00586004
0.00609759
0.0064348
0.00687555
0.0074192
0.0080574
0.00876957
0.00955102
0.0103876
0.0112613
0.0121596
0.0130773
0.0140078
0.0149508
0.0159352
0.0170385
0.0183931
0.0201169
0.0226432
6.11261e-06
6.11622e-06
6.1119e-06
6.13147e-06
5.99654e-06
7.16309e-06
5.38529e-06
1.09246e-07
3.32189e-07
6.08552e-07
0.000316923
0.00118517
0.00272164
0.00461018
0.00613433
0.00689772
0.00730041
0.00750515
0.00762851
0.00771108
0.00780923
0.00794967
0.00817443
0.00851241
0.00896449
0.00953067
0.0102189
0.0110341
0.0119597
0.0129771
0.0140676
0.0152007
0.0163519
0.0175139
0.0186752
0.0198243
0.0209931
0.0222693
0.023796
0.0257823
0.0286257
6.11195e-06
6.11355e-06
6.11325e-06
6.11887e-06
6.09842e-06
6.04521e-06
7.3584e-06
4.89604e-06
4.61659e-07
1.49073e-08
2.41418e-05
0.00012746
0.000778332
0.00215094
0.0042058
0.00641471
0.00799092
0.00880625
0.00932296
0.00968844
0.0100256
0.0103789
0.0108105
0.0113651
0.0120626
0.012903
0.0138759
0.0149632
0.016147
0.0174255
0.0187987
0.0202218
0.0216455
0.0230605
0.024457
0.0257967
0.0271098
0.0285003
0.0300965
0.0321928
0.0351889
6.11073e-06
6.11169e-06
6.113e-06
6.10886e-06
6.12626e-06
6.05442e-06
6.17762e-06
7.04753e-06
5.89366e-06
1.32985e-06
7.01083e-09
5.91173e-07
2.49309e-07
0.000372919
0.00141989
0.00332915
0.00588799
0.00842631
0.0101686
0.0111792
0.0119532
0.0126357
0.0133591
0.0142066
0.0152324
0.0164547
0.0178695
0.0194585
0.0211869
0.023006
0.0248516
0.0266495
0.0283566
0.0300101
0.0316396
0.033135
0.0345053
0.0359207
0.0374617
0.0393915
0.0422137
6.10933e-06
6.11017e-06
6.10998e-06
6.1105e-06
6.1081e-06
6.11699e-06
6.0615e-06
6.16763e-06
6.76864e-06
6.5898e-06
2.89345e-06
2.18287e-09
1.25748e-09
2.66154e-05
9.99884e-05
0.000729476
0.00219698
0.00463061
0.00770904
0.0106902
0.0128187
0.0142006
0.01538
0.0165876
0.0179666
0.0195814
0.0214487
0.0235654
0.0258986
0.028393
0.0309793
0.0335763
0.0360927
0.0384366
0.0404917
0.0421351
0.0434185
0.0447549
0.0460838
0.047566
0.0497729
6.10803e-06
6.10843e-06
6.10831e-06
6.10814e-06
6.10791e-06
6.10739e-06
6.10873e-06
6.07736e-06
6.12876e-06
6.53481e-06
7.03097e-06
4.35137e-06
1.90535e-07
1.86278e-09
1.36417e-07
0.000101252
0.000226222
0.00111639
0.00298266
0.00592892
0.00960451
0.0131573
0.0158295
0.0177959
0.019657
0.0216883
0.0239682
0.0265495
0.0294185
0.0325183
0.0357769
0.0391105
0.0424221
0.045616
0.0485899
0.0512306
0.0534412
0.0551449
0.0562363
0.0570062
0.0584536
6.10683e-06
6.10713e-06
6.10711e-06
6.10711e-06
6.10671e-06
6.10615e-06
6.10615e-06
6.10606e-06
6.08754e-06
6.09479e-06
6.33153e-06
7.08883e-06
5.93512e-06
1.53401e-06
2.3148e-10
6.08781e-11
1.44898e-06
0.000172476
0.000354961
0.00144704
0.00365114
0.00692878
0.0108283
0.014869
0.0185327
0.0216258
0.0244866
0.0275235
0.0308632
0.0344705
0.0382893
0.0422493
0.0462465
0.0501815
0.0539525
0.0574604
0.0606155
0.0633584
0.0656197
0.0673715
0.0686563
6.10578e-06
6.10653e-06
6.10665e-06
6.10665e-06
6.10628e-06
6.10592e-06
6.10544e-06
6.10559e-06
6.10502e-06
6.09733e-06
6.07062e-06
6.20872e-06
6.82966e-06
6.76533e-06
4.40714e-06
2.71157e-07
2.92573e-09
8.53824e-13
6.18585e-06
0.000219325
0.000420545
0.00154734
0.00358186
0.00657918
0.0103819
0.0147474
0.0194024
0.0240445
0.0284792
0.0327752
0.0371311
0.0416443
0.0462587
0.0508652
0.0553561
0.0596336
0.0636207
0.0672807
0.0705461
0.0733626
0.0757257
6.10492e-06
6.1062e-06
6.10623e-06
6.106e-06
6.10555e-06
6.10513e-06
6.10479e-06
6.10448e-06
6.10444e-06
6.1046e-06
6.10136e-06
6.06927e-06
6.13999e-06
6.41352e-06
7.12859e-06
5.9099e-06
2.91931e-06
1.12933e-08
5.07039e-10
6.15806e-14
9.47367e-06
0.000193976
0.000250053
0.0010257
0.00248889
0.0047803
0.00793046
0.0119044
0.0166273
0.0219894
0.0278046
0.0337845
0.0396436
0.0452468
0.0505868
0.0556854
0.0605355
0.0651216
0.0693784
0.0732365
0.07667
6.10417e-06
6.10548e-06
6.10534e-06
6.10479e-06
6.10429e-06
6.1039e-06
6.1036e-06
6.10337e-06
6.10324e-06
6.10294e-06
6.10414e-06
6.10055e-06
6.0865e-06
6.07567e-06
6.25371e-06
6.68051e-06
7.12811e-06
5.12572e-06
1.55067e-06
9.73953e-10
2.10462e-10
3.75376e-14
9.01543e-07
7.01466e-05
8.23938e-08
0.000321025
0.00101746
0.00226368
0.00420676
0.00692015
0.0104666
0.0148662
0.0200795
0.0260173
0.0324989
0.0392411
0.0459183
0.0523009
0.0582029
0.0635327
0.0682962
6.10322e-06
6.10427e-06
6.10398e-06
6.10348e-06
6.10306e-06
6.10276e-06
6.10256e-06
6.10243e-06
6.10227e-06
6.10216e-06
6.10201e-06
6.10278e-06
6.10186e-06
6.09333e-06
6.07072e-06
6.12354e-06
6.35784e-06
6.96579e-06
6.9846e-06
4.75109e-06
1.14119e-06
6.95345e-10
2.22491e-10
6.57167e-13
4.18321e-12
1.38098e-06
5.08351e-05
0.000184526
3.66475e-05
0.000358212
0.00105578
0.00223525
0.00399557
0.00645183
0.00966149
0.0136413
0.0183436
0.0237284
0.0296468
0.0359074
0.0423066
6.10203e-06
6.10271e-06
6.10225e-06
6.10166e-06
6.10119e-06
6.10088e-06
6.10069e-06
6.1006e-06
6.10057e-06
6.10061e-06
6.10056e-06
6.10061e-06
6.10078e-06
6.102e-06
6.09619e-06
6.08497e-06
6.06732e-06
6.18348e-06
6.51512e-06
7.04789e-06
6.83912e-06
4.46336e-06
1.68336e-06
1.50952e-08
6.6817e-10
3.00864e-11
1.85556e-13
0
2.48009e-09
1.38626e-06
4.34809e-05
0.000149996
4.15548e-08
9.85322e-05
0.000401283
0.00110142
0.00220241
0.00379579
0.00593211
0.00863492
0.011962
6.10075e-06
6.10114e-06
6.10057e-06
6.09997e-06
6.09954e-06
6.09928e-06
6.09914e-06
6.09909e-06
6.0991e-06
6.09915e-06
6.09923e-06
6.09932e-06
6.09937e-06
6.09966e-06
6.10014e-06
6.09958e-06
6.09006e-06
6.07338e-06
6.08126e-06
6.23597e-06
6.62145e-06
7.03681e-06
6.9675e-06
5.23744e-06
2.65387e-06
8.38882e-07
5.80072e-09
4.24325e-10
3.05297e-11
7.21912e-12
1.47691e-14
0
9.17531e-13
1.16211e-08
1.34145e-06
3.59881e-05
0.000123519
0.000231745
0.00037127
1.41197e-05
0.000381498
6.09942e-06
6.09957e-06
6.09901e-06
6.0985e-06
6.09819e-06
6.09804e-06
6.09801e-06
6.09805e-06
6.09812e-06
6.09821e-06
6.09832e-06
6.09843e-06
6.09854e-06
6.09861e-06
6.09881e-06
6.09924e-06
6.09978e-06
6.09623e-06
6.08275e-06
6.06667e-06
6.094e-06
6.26835e-06
6.57069e-06
7.03942e-06
7.07135e-06
6.57209e-06
4.94179e-06
2.81891e-06
1.17048e-06
3.09473e-07
6.98572e-10
1.78317e-10
2.57141e-11
9.86321e-12
2.5484e-12
3.91498e-14
0
0
0
2.24304e-10
6.20246e-07
6.09807e-06
6.09811e-06
6.09767e-06
6.09735e-06
6.09723e-06
6.09726e-06
6.09737e-06
6.09751e-06
6.09767e-06
6.09782e-06
6.09796e-06
6.09809e-06
6.0982e-06
6.09831e-06
6.0984e-06
6.09848e-06
6.09881e-06
6.09941e-06
6.09897e-06
6.09325e-06
6.07688e-06
6.06808e-06
6.08812e-06
6.21211e-06
6.45102e-06
6.74434e-06
7.11815e-06
7.18583e-06
6.75995e-06
5.95797e-06
4.50477e-06
2.85509e-06
1.50632e-06
6.39322e-07
1.82322e-07
3.07958e-09
2.34661e-10
2.40946e-11
1.29357e-11
6.19317e-12
2.3578e-12
6.09675e-06
6.09684e-06
6.09663e-06
6.09659e-06
6.09672e-06
6.09694e-06
6.09721e-06
6.09747e-06
6.09771e-06
6.09792e-06
6.09811e-06
6.09827e-06
6.09841e-06
6.09852e-06
6.09861e-06
6.09869e-06
6.09874e-06
6.09888e-06
6.09931e-06
6.09987e-06
6.09844e-06
6.09162e-06
6.07869e-06
6.06508e-06
6.07575e-06
6.12439e-06
6.25162e-06
6.46013e-06
6.71619e-06
6.95897e-06
7.2232e-06
7.25934e-06
7.00619e-06
6.45398e-06
5.69617e-06
4.62649e-06
3.43096e-06
2.29296e-06
1.3827e-06
7.30465e-07
3.10148e-07
6.09554e-06
6.09582e-06
6.09594e-06
6.09621e-06
6.09659e-06
6.09701e-06
6.09741e-06
6.09777e-06
6.0981e-06
6.09837e-06
6.09861e-06
6.09881e-06
6.09897e-06
6.09911e-06
6.09922e-06
6.09932e-06
6.09939e-06
6.09943e-06
6.09949e-06
6.09967e-06
6.10023e-06
6.10046e-06
6.09929e-06
6.09389e-06
6.08386e-06
6.07194e-06
6.06386e-06
6.07254e-06
6.1131e-06
6.18758e-06
6.31299e-06
6.48547e-06
6.68581e-06
6.89261e-06
7.07483e-06
7.25365e-06
7.33145e-06
7.2572e-06
7.01581e-06
6.60963e-06
6.10494e-06
6.09449e-06
6.09509e-06
6.09559e-06
6.09616e-06
6.09675e-06
6.09732e-06
6.09782e-06
6.09827e-06
6.09866e-06
6.09899e-06
6.09927e-06
6.09951e-06
6.09972e-06
6.09989e-06
6.10004e-06
6.10016e-06
6.10026e-06
6.10034e-06
6.1004e-06
6.10043e-06
6.10054e-06
6.10079e-06
6.10125e-06
6.10163e-06
6.10096e-06
6.09835e-06
6.09263e-06
6.08363e-06
6.07338e-06
6.06539e-06
6.06297e-06
6.07265e-06
6.09996e-06
6.14964e-06
6.22103e-06
6.31864e-06
6.44027e-06
6.58305e-06
6.73652e-06
6.89089e-06
7.02997e-06
6.09365e-06
6.09465e-06
6.09551e-06
6.09632e-06
6.09707e-06
6.09773e-06
6.09831e-06
6.09881e-06
6.09925e-06
6.09962e-06
6.09995e-06
6.10024e-06
6.10048e-06
6.1007e-06
6.10088e-06
6.10104e-06
6.10119e-06
6.10131e-06
6.10142e-06
6.1015e-06
6.10158e-06
6.10166e-06
6.10177e-06
6.102e-06
6.10237e-06
6.10277e-06
6.10291e-06
6.10227e-06
6.10019e-06
6.09638e-06
6.09059e-06
6.08307e-06
6.07477e-06
6.0672e-06
6.06218e-06
6.0612e-06
6.06618e-06
6.07985e-06
6.10337e-06
6.14009e-06
6.18159e-06
6.09306e-06
6.09447e-06
6.0956e-06
6.09657e-06
6.09741e-06
6.09813e-06
6.09876e-06
6.09931e-06
6.09979e-06
6.10021e-06
6.10058e-06
6.10091e-06
6.1012e-06
6.10145e-06
6.10168e-06
6.10189e-06
6.10207e-06
6.10223e-06
6.10239e-06
6.10252e-06
6.10266e-06
6.10278e-06
6.10288e-06
6.10297e-06
6.10308e-06
6.10325e-06
6.1035e-06
6.10385e-06
6.10422e-06
6.10446e-06
6.10436e-06
6.10369e-06
6.1022e-06
6.09969e-06
6.09613e-06
6.09154e-06
6.08612e-06
6.08006e-06
6.07386e-06
6.06818e-06
6.06366e-06
6.09271e-06
6.09444e-06
6.09576e-06
6.09681e-06
6.0977e-06
6.09847e-06
6.09914e-06
6.09973e-06
6.10025e-06
6.10072e-06
6.10113e-06
6.1015e-06
6.10184e-06
6.10214e-06
6.10241e-06
6.10265e-06
6.10288e-06
6.10309e-06
6.10328e-06
6.10346e-06
6.10364e-06
6.10381e-06
6.10396e-06
6.1041e-06
6.10422e-06
6.10432e-06
6.10443e-06
6.10455e-06
6.10471e-06
6.10493e-06
6.1052e-06
6.10551e-06
6.10584e-06
6.1061e-06
6.10624e-06
6.10617e-06
6.1058e-06
6.10504e-06
6.10386e-06
6.10204e-06
6.10027e-06
6.09255e-06
6.09449e-06
6.09589e-06
6.09699e-06
6.09791e-06
6.09872e-06
6.09943e-06
6.10006e-06
6.10063e-06
6.10114e-06
6.10161e-06
6.10202e-06
6.1024e-06
6.10275e-06
6.10306e-06
6.10335e-06
6.10362e-06
6.10387e-06
6.1041e-06
6.10432e-06
6.10455e-06
6.10475e-06
6.10494e-06
6.10512e-06
6.10528e-06
6.10543e-06
6.10557e-06
6.1057e-06
6.10581e-06
6.10593e-06
6.10604e-06
6.10617e-06
6.10633e-06
6.1065e-06
6.10671e-06
6.10695e-06
6.10721e-06
6.10748e-06
6.10774e-06
6.10796e-06
6.10817e-06
6.0925e-06
6.09451e-06
6.09594e-06
6.09708e-06
6.09804e-06
6.09888e-06
6.09964e-06
6.10032e-06
6.10093e-06
6.10149e-06
6.102e-06
6.10246e-06
6.10289e-06
6.10328e-06
6.10364e-06
6.10397e-06
6.10428e-06
6.10458e-06
6.10485e-06
6.10511e-06
6.10537e-06
6.10562e-06
6.10585e-06
6.10606e-06
6.10625e-06
6.10644e-06
6.10661e-06
6.10678e-06
6.10693e-06
6.10707e-06
6.10721e-06
6.10734e-06
6.10746e-06
6.10758e-06
6.10769e-06
6.10781e-06
6.10794e-06
6.10807e-06
6.10821e-06
6.10836e-06
6.10852e-06
6.09245e-06
6.09446e-06
6.09591e-06
6.09707e-06
6.09807e-06
6.09895e-06
6.09975e-06
6.10047e-06
6.10114e-06
6.10175e-06
6.10231e-06
6.10282e-06
6.10329e-06
6.10373e-06
6.10414e-06
6.10452e-06
6.10487e-06
6.10521e-06
6.10553e-06
6.10583e-06
6.10613e-06
6.10641e-06
6.10668e-06
6.10692e-06
6.10715e-06
6.10737e-06
6.10757e-06
6.10777e-06
6.10795e-06
6.10813e-06
6.10829e-06
6.10845e-06
6.1086e-06
6.10875e-06
6.10889e-06
6.10902e-06
6.10915e-06
6.10928e-06
6.1094e-06
6.10951e-06
6.10964e-06
6.09232e-06
6.09433e-06
6.09579e-06
6.09697e-06
6.09799e-06
6.09891e-06
6.09975e-06
6.10053e-06
6.10125e-06
6.10191e-06
6.10252e-06
6.10309e-06
6.10362e-06
6.10411e-06
6.10456e-06
6.10499e-06
6.10539e-06
6.10577e-06
6.10613e-06
6.10647e-06
6.10682e-06
6.10714e-06
6.10743e-06
6.10771e-06
6.10798e-06
6.10823e-06
6.10846e-06
6.10868e-06
6.10889e-06
6.1091e-06
6.10929e-06
6.10947e-06
6.10965e-06
6.10982e-06
6.10999e-06
6.11015e-06
6.11031e-06
6.11045e-06
6.1106e-06
6.11074e-06
6.11089e-06
6.09211e-06
6.0941e-06
6.09556e-06
6.09675e-06
6.0978e-06
6.09876e-06
6.09965e-06
6.10048e-06
6.10126e-06
6.10198e-06
6.10265e-06
6.10328e-06
6.10386e-06
6.1044e-06
6.10491e-06
6.10539e-06
6.10584e-06
6.10627e-06
6.10667e-06
6.10706e-06
6.10744e-06
6.1078e-06
6.10813e-06
6.10845e-06
6.10874e-06
6.10902e-06
6.10928e-06
6.10954e-06
6.10977e-06
6.11e-06
6.11022e-06
6.11043e-06
6.11063e-06
6.11083e-06
6.11101e-06
6.11119e-06
6.11137e-06
6.11154e-06
6.11171e-06
6.11186e-06
6.11204e-06
6.09181e-06
6.09376e-06
6.09521e-06
6.09641e-06
6.0975e-06
6.0985e-06
6.09944e-06
6.10033e-06
6.10117e-06
6.10195e-06
6.10269e-06
6.10337e-06
6.10402e-06
6.10462e-06
6.10519e-06
6.10572e-06
6.10622e-06
6.1067e-06
6.10715e-06
6.10758e-06
6.108e-06
6.1084e-06
6.10877e-06
6.10912e-06
6.10945e-06
6.10976e-06
6.11006e-06
6.11034e-06
6.1106e-06
6.11086e-06
6.1111e-06
6.11133e-06
6.11155e-06
6.11177e-06
6.11198e-06
6.11218e-06
6.11237e-06
6.11256e-06
6.11275e-06
6.11292e-06
6.11311e-06
6.0914e-06
6.0933e-06
6.09473e-06
6.09595e-06
6.09706e-06
6.09812e-06
6.09912e-06
6.10007e-06
6.10097e-06
6.10182e-06
6.10262e-06
6.10338e-06
6.10409e-06
6.10476e-06
6.10538e-06
6.10597e-06
6.10653e-06
6.10706e-06
6.10756e-06
6.10804e-06
6.1085e-06
6.10894e-06
6.10936e-06
6.10974e-06
6.11011e-06
6.11045e-06
6.11077e-06
6.11108e-06
6.11138e-06
6.11166e-06
6.11192e-06
6.11218e-06
6.11243e-06
6.11266e-06
6.11289e-06
6.11311e-06
6.11333e-06
6.11353e-06
6.11374e-06
6.11393e-06
6.11414e-06
6.09086e-06
6.0927e-06
6.09411e-06
6.09534e-06
6.0965e-06
6.0976e-06
6.09866e-06
6.09967e-06
6.10064e-06
6.10157e-06
6.10244e-06
6.10327e-06
6.10404e-06
6.10478e-06
6.10547e-06
6.10612e-06
6.10674e-06
6.10733e-06
6.10788e-06
6.10841e-06
6.10893e-06
6.10941e-06
6.10987e-06
6.11029e-06
6.11069e-06
6.11107e-06
6.11143e-06
6.11177e-06
6.11209e-06
6.1124e-06
6.11269e-06
6.11297e-06
6.11324e-06
6.1135e-06
6.11375e-06
6.11399e-06
6.11422e-06
6.11444e-06
6.11466e-06
6.11487e-06
6.11509e-06
6.09019e-06
6.09195e-06
6.09334e-06
6.09459e-06
6.09578e-06
6.09693e-06
6.09805e-06
6.09913e-06
6.10017e-06
6.10116e-06
6.1021e-06
6.103e-06
6.10385e-06
6.10466e-06
6.10542e-06
6.10614e-06
6.10682e-06
6.10746e-06
6.10808e-06
6.10866e-06
6.10923e-06
6.10976e-06
6.11026e-06
6.11073e-06
6.11117e-06
6.11159e-06
6.11198e-06
6.11235e-06
6.11271e-06
6.11304e-06
6.11336e-06
6.11367e-06
6.11396e-06
6.11424e-06
6.11451e-06
6.11477e-06
6.11502e-06
6.11526e-06
6.1155e-06
6.11572e-06
6.11596e-06
6.08936e-06
6.09105e-06
6.09242e-06
6.09368e-06
6.0949e-06
6.0961e-06
6.09726e-06
6.0984e-06
6.09949e-06
6.10055e-06
6.10156e-06
6.10253e-06
6.10345e-06
6.10433e-06
6.10516e-06
6.10595e-06
6.1067e-06
6.10741e-06
6.10809e-06
6.10873e-06
6.10936e-06
6.10994e-06
6.11049e-06
6.11101e-06
6.11149e-06
6.11195e-06
6.11238e-06
6.11278e-06
6.11317e-06
6.11353e-06
6.11388e-06
6.11421e-06
6.11453e-06
6.11483e-06
6.11512e-06
6.1154e-06
6.11567e-06
6.11593e-06
6.11618e-06
6.11641e-06
6.11666e-06
6.08837e-06
6.08997e-06
6.09132e-06
6.09259e-06
6.09383e-06
6.09505e-06
6.09625e-06
6.09742e-06
6.09857e-06
6.09968e-06
6.10076e-06
6.10179e-06
6.10278e-06
6.10373e-06
6.10464e-06
6.1055e-06
6.10632e-06
6.1071e-06
6.10784e-06
6.10855e-06
6.10923e-06
6.10987e-06
6.11047e-06
6.11103e-06
6.11156e-06
6.11206e-06
6.11253e-06
6.11297e-06
6.11339e-06
6.11379e-06
6.11417e-06
6.11452e-06
6.11487e-06
6.11519e-06
6.1155e-06
6.1158e-06
6.11609e-06
6.11636e-06
6.11663e-06
6.11688e-06
6.11714e-06
6.08719e-06
6.08872e-06
6.09003e-06
6.09129e-06
6.09253e-06
6.09375e-06
6.09497e-06
6.09616e-06
6.09735e-06
6.0985e-06
6.09963e-06
6.10073e-06
6.10179e-06
6.10281e-06
6.10378e-06
6.10472e-06
6.10561e-06
6.10645e-06
6.10726e-06
6.10803e-06
6.10877e-06
6.10947e-06
6.11013e-06
6.11074e-06
6.11132e-06
6.11186e-06
6.11237e-06
6.11285e-06
6.11331e-06
6.11373e-06
6.11414e-06
6.11452e-06
6.11489e-06
6.11523e-06
6.11556e-06
6.11587e-06
6.11617e-06
6.11646e-06
6.11674e-06
6.11699e-06
6.11726e-06
6.08583e-06
6.08726e-06
6.08853e-06
6.08975e-06
6.09096e-06
6.09216e-06
6.09337e-06
6.09457e-06
6.09577e-06
6.09697e-06
6.09814e-06
6.09929e-06
6.10041e-06
6.10149e-06
6.10254e-06
6.10354e-06
6.1045e-06
6.10542e-06
6.10629e-06
6.10712e-06
6.10792e-06
6.10867e-06
6.10938e-06
6.11004e-06
6.11066e-06
6.11125e-06
6.1118e-06
6.11232e-06
6.1128e-06
6.11326e-06
6.1137e-06
6.11411e-06
6.1145e-06
6.11486e-06
6.11522e-06
6.11555e-06
6.11587e-06
6.11617e-06
6.11646e-06
6.11674e-06
6.11701e-06
6.08425e-06
6.08558e-06
6.08678e-06
6.08793e-06
6.08908e-06
6.09024e-06
6.09141e-06
6.09261e-06
6.09382e-06
6.09503e-06
6.09624e-06
6.09744e-06
6.09861e-06
6.09975e-06
6.10086e-06
6.10192e-06
6.10295e-06
6.10393e-06
6.10486e-06
6.10576e-06
6.10661e-06
6.10742e-06
6.10818e-06
6.1089e-06
6.10957e-06
6.1102e-06
6.11079e-06
6.11135e-06
6.11187e-06
6.11236e-06
6.11282e-06
6.11325e-06
6.11366e-06
6.11404e-06
6.11441e-06
6.11475e-06
6.11507e-06
6.11537e-06
6.11567e-06
6.11594e-06
6.1162e-06
6.08245e-06
6.08366e-06
6.08475e-06
6.0858e-06
6.08686e-06
6.08795e-06
6.08908e-06
6.09025e-06
6.09145e-06
6.09267e-06
6.0939e-06
6.09512e-06
6.09634e-06
6.09753e-06
6.09869e-06
6.09981e-06
6.10089e-06
6.10193e-06
6.10293e-06
6.10388e-06
6.10478e-06
6.10564e-06
6.10644e-06
6.1072e-06
6.10791e-06
6.10858e-06
6.1092e-06
6.10979e-06
6.11034e-06
6.11086e-06
6.11134e-06
6.1118e-06
6.11223e-06
6.11264e-06
6.11302e-06
6.11338e-06
6.11372e-06
6.11405e-06
6.11436e-06
6.11465e-06
6.11494e-06
6.08041e-06
6.08147e-06
6.08241e-06
6.08334e-06
6.08429e-06
6.08529e-06
6.08636e-06
6.08747e-06
6.08864e-06
6.08984e-06
6.09106e-06
6.09229e-06
6.09352e-06
6.09473e-06
6.09592e-06
6.09709e-06
6.09821e-06
6.09931e-06
6.10036e-06
6.10136e-06
6.10233e-06
6.10324e-06
6.10411e-06
6.10492e-06
6.10569e-06
6.10641e-06
6.10708e-06
6.10771e-06
6.1083e-06
6.10885e-06
6.10937e-06
6.10985e-06
6.11029e-06
6.11071e-06
6.1111e-06
6.11147e-06
6.11181e-06
6.11212e-06
6.11242e-06
6.1127e-06
6.11296e-06
6.0781e-06
6.07897e-06
6.07975e-06
6.08052e-06
6.08135e-06
6.08225e-06
6.08322e-06
6.08425e-06
6.08534e-06
6.08647e-06
6.08764e-06
6.08884e-06
6.09004e-06
6.09125e-06
6.09245e-06
6.09364e-06
6.0948e-06
6.09593e-06
6.09701e-06
6.09804e-06
6.09903e-06
6.09997e-06
6.10086e-06
6.10169e-06
6.10248e-06
6.10321e-06
6.10391e-06
6.10455e-06
6.10516e-06
6.10573e-06
6.10626e-06
6.10676e-06
6.10723e-06
6.10767e-06
6.10808e-06
6.10847e-06
6.10884e-06
6.10918e-06
6.1095e-06
6.10981e-06
6.1101e-06
6.0755e-06
6.07615e-06
6.07674e-06
6.07735e-06
6.07804e-06
6.07879e-06
6.07962e-06
6.08051e-06
6.08147e-06
6.08248e-06
6.08354e-06
6.08464e-06
6.08577e-06
6.08691e-06
6.08804e-06
6.08916e-06
6.09027e-06
6.09138e-06
6.09248e-06
6.09354e-06
6.09458e-06
6.09558e-06
6.09654e-06
6.09745e-06
6.09832e-06
6.09914e-06
6.0999e-06
6.10062e-06
6.1013e-06
6.10193e-06
6.10251e-06
6.10306e-06
6.10356e-06
6.10403e-06
6.10446e-06
6.10486e-06
6.10524e-06
6.10558e-06
6.1059e-06
6.10618e-06
6.10646e-06
6.07258e-06
6.07298e-06
6.07337e-06
6.0738e-06
6.07429e-06
6.07485e-06
6.07546e-06
6.07613e-06
6.07686e-06
6.07765e-06
6.07848e-06
6.07938e-06
6.08035e-06
6.08139e-06
6.08251e-06
6.0837e-06
6.0849e-06
6.08607e-06
6.08721e-06
6.0883e-06
6.08935e-06
6.09035e-06
6.09129e-06
6.09218e-06
6.09303e-06
6.09383e-06
6.09458e-06
6.09528e-06
6.09594e-06
6.09656e-06
6.09714e-06
6.09768e-06
6.09818e-06
6.09865e-06
6.09909e-06
6.0995e-06
6.09987e-06
6.10023e-06
6.10055e-06
6.10086e-06
6.10115e-06
6.06932e-06
6.06946e-06
6.0696e-06
6.06978e-06
6.06999e-06
6.07023e-06
6.07051e-06
6.07082e-06
6.07116e-06
6.07153e-06
6.07192e-06
6.07232e-06
6.07274e-06
6.07317e-06
6.07358e-06
6.07403e-06
6.07443e-06
6.07482e-06
6.07521e-06
6.07562e-06
6.07605e-06
6.07651e-06
6.07699e-06
6.0775e-06
6.07802e-06
6.07854e-06
6.07907e-06
6.07959e-06
6.08011e-06
6.08061e-06
6.0811e-06
6.08157e-06
6.08202e-06
6.08246e-06
6.08287e-06
6.08327e-06
6.08364e-06
6.08399e-06
6.08433e-06
6.08463e-06
6.08495e-06
0.00363439
0.00713204
0.0101566
0.012175
0.0130502
0.0128518
0.0116787
0.00966972
0.00690928
0.00359653
0.000853178
2.65581e-07
1.96654e-09
4.34897e-07
8.22e-06
6.88763e-06
5.89027e-06
6.03207e-06
6.11196e-06
6.09874e-06
6.09709e-06
6.1008e-06
6.10121e-06
6.10051e-06
6.09974e-06
6.09862e-06
6.09717e-06
6.0956e-06
6.09409e-06
6.09279e-06
6.09177e-06
6.09104e-06
6.09057e-06
6.09029e-06
6.09012e-06
6.08999e-06
6.08987e-06
6.08972e-06
6.08954e-06
6.08932e-06
6.08908e-06
6.0888e-06
6.08848e-06
6.08812e-06
6.08771e-06
6.08725e-06
6.08674e-06
6.08618e-06
6.08556e-06
6.08487e-06
6.08412e-06
6.08329e-06
6.08237e-06
6.08136e-06
6.08025e-06
6.07902e-06
6.07769e-06
6.07626e-06
6.07476e-06
6.07326e-06
6.07189e-06
6.07085e-06
6.07039e-06
6.07074e-06
6.07197e-06
6.074e-06
6.07654e-06
6.07942e-06
6.08256e-06
6.08599e-06
6.08963e-06
6.09389e-06
6.09733e-06
6.10594e-06
0.00621727
0.010867
0.0144093
0.0165846
0.0174921
0.017296
0.0161304
0.0141201
0.0113431
0.00782734
0.00385894
0.000794263
0.000181237
2.0489e-09
1.24903e-07
7.4392e-06
7.30547e-06
5.94002e-06
5.99147e-06
6.11183e-06
6.10596e-06
6.09708e-06
6.10033e-06
6.10132e-06
6.09993e-06
6.09863e-06
6.09743e-06
6.09595e-06
6.09437e-06
6.093e-06
6.09193e-06
6.09117e-06
6.09066e-06
6.09034e-06
6.09015e-06
6.09002e-06
6.0899e-06
6.08975e-06
6.08957e-06
6.08936e-06
6.08913e-06
6.08886e-06
6.08855e-06
6.0882e-06
6.0878e-06
6.08736e-06
6.08686e-06
6.08631e-06
6.0857e-06
6.08503e-06
6.08429e-06
6.08347e-06
6.08257e-06
6.08158e-06
6.08048e-06
6.07927e-06
6.07795e-06
6.07653e-06
6.07504e-06
6.07354e-06
6.07213e-06
6.07102e-06
6.07045e-06
6.07065e-06
6.07174e-06
6.07365e-06
6.07615e-06
6.07901e-06
6.08214e-06
6.08556e-06
6.08918e-06
6.09342e-06
6.09684e-06
6.10538e-06
0.00868737
0.0147577
0.0190207
0.0214627
0.0224655
0.0223071
0.0211633
0.0191642
0.0163998
0.0129025
0.00869173
0.00411261
0.000824947
0.00021072
4.89447e-10
2.92384e-09
6.33988e-06
7.76885e-06
6.12628e-06
5.93628e-06
6.10288e-06
6.12027e-06
6.09886e-06
6.09792e-06
6.10122e-06
6.10006e-06
6.09765e-06
6.09598e-06
6.09465e-06
6.09332e-06
6.09215e-06
6.0913e-06
6.09074e-06
6.0904e-06
6.09019e-06
6.09004e-06
6.08991e-06
6.08977e-06
6.0896e-06
6.08941e-06
6.08919e-06
6.08893e-06
6.08864e-06
6.0883e-06
6.08791e-06
6.08748e-06
6.08699e-06
6.08645e-06
6.08586e-06
6.0852e-06
6.08448e-06
6.08368e-06
6.08279e-06
6.08181e-06
6.08073e-06
6.07954e-06
6.07824e-06
6.07683e-06
6.07535e-06
6.07383e-06
6.0724e-06
6.07122e-06
6.07054e-06
6.07059e-06
6.07152e-06
6.0733e-06
6.07574e-06
6.07858e-06
6.08169e-06
6.0851e-06
6.0887e-06
6.09292e-06
6.09632e-06
6.10478e-06
0.0111262
0.0188379
0.0239622
0.026791
0.0279815
0.0279249
0.0268431
0.0248811
0.0221402
0.0186779
0.0145058
0.00962305
0.00451208
0.000955715
0.000270233
8.85573e-12
3.60639e-08
4.1961e-06
8.30447e-06
6.4371e-06
5.87017e-06
6.04822e-06
6.13569e-06
6.10839e-06
6.09197e-06
6.09657e-06
6.09987e-06
6.09785e-06
6.095e-06
6.09331e-06
6.09233e-06
6.09153e-06
6.09088e-06
6.09045e-06
6.09021e-06
6.09006e-06
6.08994e-06
6.08981e-06
6.08965e-06
6.08947e-06
6.08926e-06
6.08902e-06
6.08874e-06
6.08841e-06
6.08804e-06
6.08762e-06
6.08715e-06
6.08662e-06
6.08604e-06
6.0854e-06
6.08469e-06
6.0839e-06
6.08303e-06
6.08207e-06
6.08101e-06
6.07984e-06
6.07855e-06
6.07716e-06
6.07568e-06
6.07416e-06
6.0727e-06
6.07145e-06
6.07066e-06
6.07056e-06
6.07131e-06
6.07295e-06
6.07531e-06
6.07812e-06
6.08122e-06
6.0846e-06
6.08819e-06
6.09239e-06
6.09578e-06
6.10415e-06
0.0137129
0.023169
0.0291874
0.0325109
0.0340026
0.0341408
0.0331915
0.0313205
0.028641
0.0252276
0.0211204
0.0163062
0.0108003
0.00519727
0.00122145
0.000373562
0
2.22677e-08
2.46711e-06
8.25856e-06
7.2017e-06
5.91706e-06
5.92277e-06
6.13e-06
6.14767e-06
6.10242e-06
6.08804e-06
6.09384e-06
6.09719e-06
6.09527e-06
6.09264e-06
6.09135e-06
6.0909e-06
6.09062e-06
6.09031e-06
6.09007e-06
6.08993e-06
6.08983e-06
6.08972e-06
6.08956e-06
6.08936e-06
6.08912e-06
6.08885e-06
6.08854e-06
6.08818e-06
6.08778e-06
6.08732e-06
6.08681e-06
6.08624e-06
6.08561e-06
6.08492e-06
6.08415e-06
6.0833e-06
6.08235e-06
6.08131e-06
6.08015e-06
6.07889e-06
6.07751e-06
6.07604e-06
6.07452e-06
6.07303e-06
6.07172e-06
6.07081e-06
6.07055e-06
6.07113e-06
6.0726e-06
6.07485e-06
6.07762e-06
6.08071e-06
6.08408e-06
6.08766e-06
6.09183e-06
6.09521e-06
6.10349e-06
0.0171742
0.0278181
0.034634
0.0385343
0.0404452
0.0408913
0.0401729
0.0384769
0.0359286
0.0326149
0.0285942
0.0238904
0.0184809
0.0124166
0.00627737
0.00169342
0.000588762
2.80146e-07
1.06385e-08
3.80922e-07
6.35564e-06
8.26927e-06
6.36006e-06
5.72224e-06
5.95521e-06
6.15224e-06
6.14836e-06
6.10051e-06
6.08578e-06
6.09095e-06
6.09468e-06
6.09339e-06
6.09111e-06
6.09012e-06
6.09008e-06
6.0902e-06
6.09014e-06
6.08996e-06
6.08978e-06
6.08962e-06
6.08945e-06
6.08925e-06
6.089e-06
6.08869e-06
6.08835e-06
6.08795e-06
6.08751e-06
6.08702e-06
6.08646e-06
6.08585e-06
6.08517e-06
6.08442e-06
6.08359e-06
6.08266e-06
6.08164e-06
6.0805e-06
6.07925e-06
6.07789e-06
6.07643e-06
6.0749e-06
6.07339e-06
6.07203e-06
6.07101e-06
6.07059e-06
6.07097e-06
6.07225e-06
6.07438e-06
6.0771e-06
6.08017e-06
6.08353e-06
6.08708e-06
6.09123e-06
6.0946e-06
6.10279e-06
0.0219098
0.0328003
0.0402402
0.0447528
0.047183
0.0480549
0.0476849
0.0462744
0.0439587
0.0408329
0.0369657
0.0324033
0.0271604
0.0212206
0.0146445
0.00793857
0.00271933
6.50004e-05
9.63483e-05
9.41878e-10
3.18875e-08
2.23505e-06
8.82028e-06
8.02394e-06
6.1043e-06
5.70619e-06
5.97028e-06
6.14929e-06
6.1444e-06
6.09848e-06
6.08265e-06
6.08781e-06
6.09321e-06
6.09316e-06
6.09094e-06
6.08958e-06
6.08948e-06
6.08982e-06
6.08999e-06
6.08988e-06
6.08963e-06
6.08937e-06
6.08912e-06
6.08885e-06
6.08854e-06
6.08817e-06
6.08774e-06
6.08725e-06
6.08671e-06
6.08611e-06
6.08545e-06
6.08472e-06
6.0839e-06
6.083e-06
6.08199e-06
6.08088e-06
6.07965e-06
6.0783e-06
6.07685e-06
6.07533e-06
6.07379e-06
6.07237e-06
6.07125e-06
6.07066e-06
6.07084e-06
6.07192e-06
6.0739e-06
6.07654e-06
6.07958e-06
6.08293e-06
6.08648e-06
6.0906e-06
6.09396e-06
6.10205e-06
0.0275237
0.0380787
0.0459449
0.0510384
0.0540476
0.0554491
0.0555501
0.0545535
0.0525979
0.0497821
0.0461791
0.0418443
0.036816
0.0311074
0.0247104
0.0176531
0.0104572
0.00426628
0.000605381
0.000394976
1.38587e-09
7.0373e-09
2.09644e-08
3.86408e-06
9.10494e-06
7.70254e-06
6.03762e-06
5.73096e-06
5.97616e-06