/*--------------------------------*- C++ -*----------------------------------*\
| =========                 |                                                 |
| \\      /  F ield         | OpenFOAM: The Open Source CFD Toolbox           |
|  \\    /   O peration     | Version:  2312                                  |
|   \\  /    A nd           | Website:  www.openfoam.com                      |
|    \\/     M anipulation  |                                                 |
\*---------------------------------------------------------------------------*/
FoamFile
{
    version     2.0;
    format      ascii;
    arch        "LSB;label=32;scalar=64";
    class       volScalarField;
    location    "950";
    object      turbulenceProperties:nuEff;
}
// * * * * * * * * * * * * * * * * * * * * * * * * * * * * * * * * * * * * * //

dimensions      [0 2 -1 0 0 0 0];

internalField   nonuniform List<scalar> 
11040
(
4.79202e-05
6.48805e-05
2.54401e-05
5.85636e-05
0.000197986
0.000191064
0.000181388
0.000171235
0.000158618
0.000150772
0.000142699
0.000135645
0.000129267
0.000124257
0.000119937
0.000117604
0.000117317
0.000119032
0.000122278
0.000126841
0.0001328
0.000139944
0.000147986
0.000156721
0.000166254
0.00017756
0.000190522
0.000203225
0.00021512
0.000225626
0.000234125
0.000239993
0.000244123
0.000251139
0.000270676
0.000257577
0.00018111
0.000190702
0.000209679
0.000229818
0.000304482
1.42008e-05
4.69259e-05
6.59747e-05
0.000153168
0.000611351
0.000637799
0.000561916
0.000518112
0.000452034
0.000416511
0.000380034
0.000351535
0.000324737
0.000304525
0.000285539
0.000272355
0.000265886
0.000265173
0.000267501
0.000271603
0.000277624
0.000285607
0.000293943
0.000301461
0.000309098
0.000324401
0.000352054
0.000384178
0.000420359
0.000460703
0.000505441
0.000554927
0.000608346
0.000667487
0.000734571
0.000802498
0.00087133
0.000962772
0.00107154
0.00115927
0.00162211
1.55242e-05
1.94518e-05
4.01661e-05
7.52652e-05
0.000423177
0.000975357
0.00119632
0.00115625
0.00101373
0.000938905
0.000856411
0.000795426
0.000735817
0.000692314
0.000650354
0.000616955
0.000591437
0.000571906
0.00056052
0.000556282
0.000560617
0.000574541
0.000598776
0.000634172
0.000680797
0.000738456
0.000806919
0.00088567
0.00097435
0.00107235
0.00117873
0.00129279
0.00141402
0.00154308
0.00168108
0.00182839
0.00199108
0.00219163
0.00243575
0.00267552
0.00349835
1.64818e-05
1.51662e-05
2.06822e-05
2.12476e-05
0.000149258
0.000606382
0.00131513
0.00171766
0.0017875
0.00169691
0.00155332
0.0014534
0.00134878
0.00127195
0.00119674
0.00113428
0.00108824
0.00105169
0.00102983
0.00102097
0.00102691
0.00105064
0.00109469
0.00116021
0.00124663
0.00135282
0.00147785
0.00162068
0.0017804
0.00195595
0.00214576
0.00234844
0.00256286
0.00278932
0.00302871
0.00328374
0.00356662
0.00390868
0.00432821
0.00478432
0.00594654
1.62021e-05
1.5766e-05
1.64066e-05
1.54222e-05
1.48717e-05
0.000187567
0.000719709
0.00157213
0.00226518
0.00247491
0.00248651
0.0023798
0.00221608
0.00209885
0.00198472
0.00188183
0.00180948
0.00174983
0.00171311
0.00169765
0.00170356
0.0017364
0.00180226
0.00190312
0.00203813
0.00220592
0.00240475
0.00263237
0.00288673
0.0031659
0.00346679
0.00378656
0.0041231
0.00447612
0.00484623
0.00523753
0.00566655
0.0061791
0.00680876
0.00753909
0.0090063
1.60939e-05
1.61866e-05
1.58926e-05
1.65982e-05
1.16999e-05
1.09116e-05
0.000183017
0.000742218
0.00172717
0.00274295
0.00321709
0.00338647
0.00337426
0.00326501
0.00308796
0.00292562
0.0028186
0.00272694
0.00266722
0.00264178
0.00264516
0.00268486
0.00277391
0.00291614
0.00311035
0.00335532
0.00364839
0.00398525
0.00436154
0.00477417
0.00521755
0.0056863
0.0061765
0.00668683
0.0072169
0.00777146
0.00837171
0.00907615
0.00994405
0.0109937
0.0127807
1.61046e-05
1.61373e-05
1.60133e-05
1.63528e-05
1.59295e-05
1.04291e-05
1.00035e-05
0.000130392
0.000671573
0.00172212
0.00302658
0.00396442
0.00434336
0.00448742
0.00447911
0.00437752
0.00422839
0.00407618
0.00398059
0.00394079
0.00393965
0.00398198
0.00409271
0.00428033
0.00454274
0.00487977
0.00528845
0.00576167
0.00629008
0.00686947
0.00749048
0.00814317
0.00882051
0.00951954
0.0102376
0.0109785
0.0117677
0.0126746
0.0137937
0.0151866
0.0173383
1.61144e-05
1.61118e-05
1.61318e-05
1.60485e-05
1.65648e-05
1.6049e-05
1.00186e-05
1e-05
6.28934e-05
0.000524549
0.00153567
0.00303844
0.00450582
0.00532071
0.00568798
0.00583303
0.00585927
0.00580894
0.0057392
0.00568177
0.00567839
0.00573453
0.00587004
0.00610759
0.0064448
0.00688555
0.0074292
0.0080674
0.00877957
0.00956102
0.0103976
0.0112713
0.0121696
0.0130873
0.0140178
0.0149608
0.0159452
0.0170485
0.0184031
0.0201269
0.0226532
1.61126e-05
1.61162e-05
1.61119e-05
1.61315e-05
1.59965e-05
1.71631e-05
1.53853e-05
1.01092e-05
1.03322e-05
1.06086e-05
0.000326923
0.00119517
0.00273164
0.00462018
0.00614433
0.00690772
0.00731041
0.00751515
0.00763851
0.00772108
0.00781923
0.00795967
0.00818443
0.00852241
0.00897449
0.00954067
0.0102289
0.0110441
0.0119697
0.0129871
0.0140776
0.0152107
0.0163619
0.0175239
0.0186852
0.0198343
0.0210031
0.0222793
0.023806
0.0257923
0.0286357
1.6112e-05
1.61135e-05
1.61133e-05
1.61189e-05
1.60984e-05
1.60452e-05
1.73584e-05
1.4896e-05
1.04617e-05
1.00149e-05
3.41418e-05
0.00013746
0.000788332
0.00216094
0.0042158
0.00642471
0.00800092
0.00881625
0.00933296
0.00969844
0.0100356
0.0103889
0.0108205
0.0113751
0.0120726
0.012913
0.0138859
0.0149732
0.016157
0.0174355
0.0188087
0.0202318
0.0216555
0.0230705
0.024467
0.0258067
0.0271198
0.0285103
0.0301065
0.0322028
0.0351989
1.61107e-05
1.61117e-05
1.6113e-05
1.61089e-05
1.61263e-05
1.60544e-05
1.61776e-05
1.70475e-05
1.58937e-05
1.13299e-05
1.0007e-05
1.05912e-05
1.02493e-05
0.000382919
0.00142989
0.00333915
0.00589799
0.00843631
0.0101786
0.0111892
0.0119632
0.0126457
0.0133691
0.0142166
0.0152424
0.0164647
0.0178795
0.0194685
0.0211969
0.023016
0.0248616
0.0266595
0.0283666
0.0300201
0.0316496
0.033145
0.0345153
0.0359307
0.0374717
0.0394015
0.0422237
1.61093e-05
1.61102e-05
1.611e-05
1.61105e-05
1.61081e-05
1.6117e-05
1.60615e-05
1.61676e-05
1.67686e-05
1.65898e-05
1.28935e-05
1.00022e-05
1.00013e-05
3.66154e-05
0.000109988
0.000739476
0.00220698
0.00464061
0.00771904
0.0107002
0.0128287
0.0142106
0.01539
0.0165976
0.0179766
0.0195914
0.0214587
0.0235754
0.0259086
0.028403
0.0309893
0.0335863
0.0361027
0.0384466
0.0405017
0.0421451
0.0434285
0.0447649
0.0460938
0.047576
0.0497829
1.6108e-05
1.61084e-05
1.61083e-05
1.61081e-05
1.61079e-05
1.61074e-05
1.61087e-05
1.60774e-05
1.61288e-05
1.65348e-05
1.7031e-05
1.43514e-05
1.01905e-05
1.00019e-05
1.01364e-05
0.000111252
0.000236222
0.00112639
0.00299266
0.00593892
0.00961451
0.0131673
0.0158395
0.0178059
0.019667
0.0216983
0.0239782
0.0265595
0.0294285
0.0325283
0.0357869
0.0391205
0.0424321
0.045626
0.0485999
0.0512406
0.0534512
0.0551549
0.0562463
0.0570162
0.0584636
1.61068e-05
1.61071e-05
1.61071e-05
1.61071e-05
1.61067e-05
1.61061e-05
1.61061e-05
1.61061e-05
1.60875e-05
1.60948e-05
1.63315e-05
1.70888e-05
1.59351e-05
1.1534e-05
1.00002e-05
1.00001e-05
1.1449e-05
0.000182476
0.000364961
0.00145704
0.00366114
0.00693878
0.0108383
0.014879
0.0185427
0.0216358
0.0244966
0.0275335
0.0308732
0.0344805
0.0382993
0.0422593
0.0462565
0.0501915
0.0539625
0.0574704
0.0606255
0.0633684
0.0656297
0.0673815
0.0686663
1.61058e-05
1.61065e-05
1.61067e-05
1.61066e-05
1.61063e-05
1.61059e-05
1.61054e-05
1.61056e-05
1.6105e-05
1.60973e-05
1.60706e-05
1.62087e-05
1.68297e-05
1.67653e-05
1.44071e-05
1.02712e-05
1.00029e-05
1e-05
1.61859e-05
0.000229325
0.000430545
0.00155734
0.00359186
0.00658918
0.0103919
0.0147574
0.0194124
0.0240545
0.0284892
0.0327852
0.0371411
0.0416543
0.0462687
0.0508752
0.0553661
0.0596436
0.0636307
0.0672907
0.0705561
0.0733726
0.0757357
1.61049e-05
1.61062e-05
1.61062e-05
1.6106e-05
1.61055e-05
1.61051e-05
1.61048e-05
1.61045e-05
1.61044e-05
1.61046e-05
1.61014e-05
1.60693e-05
1.614e-05
1.64135e-05
1.71286e-05
1.59099e-05
1.29193e-05
1.00113e-05
1.00005e-05
1e-05
1.94737e-05
0.000203976
0.000260053
0.0010357
0.00249889
0.0047903
0.00794046
0.0119144
0.0166373
0.0219994
0.0278146
0.0337945
0.0396536
0.0452568
0.0505968
0.0556954
0.0605455
0.0651316
0.0693884
0.0732465
0.07668
1.61042e-05
1.61055e-05
1.61053e-05
1.61048e-05
1.61043e-05
1.61039e-05
1.61036e-05
1.61034e-05
1.61032e-05
1.61029e-05
1.61041e-05
1.61006e-05
1.60865e-05
1.60757e-05
1.62537e-05
1.66805e-05
1.71281e-05
1.51257e-05
1.15507e-05
1.0001e-05
1.00002e-05
1e-05
1.09015e-05
8.01466e-05
1.00824e-05
0.000331025
0.00102746
0.00227368
0.00421676
0.00693015
0.0104766
0.0148762
0.0200895
0.0260273
0.0325089
0.0392511
0.0459283
0.0523109
0.0582129
0.0635427
0.0683062
1.61032e-05
1.61043e-05
1.6104e-05
1.61035e-05
1.61031e-05
1.61028e-05
1.61026e-05
1.61024e-05
1.61023e-05
1.61022e-05
1.6102e-05
1.61028e-05
1.61019e-05
1.60933e-05
1.60707e-05
1.61235e-05
1.63578e-05
1.69658e-05
1.69846e-05
1.47511e-05
1.11412e-05
1.00007e-05
1.00002e-05
1e-05
1e-05
1.1381e-05
6.08351e-05
0.000194526
4.66475e-05
0.000368212
0.00106578
0.00224525
0.00400557
0.00646183
0.00967149
0.0136513
0.0183536
0.0237384
0.0296568
0.0359174
0.0423166
1.6102e-05
1.61027e-05
1.61023e-05
1.61017e-05
1.61012e-05
1.61009e-05
1.61007e-05
1.61006e-05
1.61006e-05
1.61006e-05
1.61006e-05
1.61006e-05
1.61008e-05
1.6102e-05
1.60962e-05
1.6085e-05
1.60673e-05
1.61835e-05
1.65151e-05
1.70479e-05
1.68391e-05
1.44634e-05
1.16834e-05
1.00151e-05
1.00007e-05
1e-05
1e-05
1e-05
1.00025e-05
1.13863e-05
5.34809e-05
0.000159996
1.00416e-05
0.000108532
0.000411283
0.00111142
0.00221241
0.00380579
0.00594211
0.00864492
0.011972
1.61008e-05
1.61011e-05
1.61006e-05
1.61e-05
1.60995e-05
1.60993e-05
1.60991e-05
1.60991e-05
1.60991e-05
1.60992e-05
1.60992e-05
1.60993e-05
1.60994e-05
1.60997e-05
1.61001e-05
1.60996e-05
1.60901e-05
1.60734e-05
1.60813e-05
1.6236e-05
1.66215e-05
1.70368e-05
1.69675e-05
1.52374e-05
1.26539e-05
1.08389e-05
1.00058e-05
1.00004e-05
1e-05
1e-05
1e-05
1e-05
1e-05
1.00116e-05
1.13415e-05
4.59881e-05
0.000133519
0.000241745
0.00038127
2.41197e-05
0.000391498
1.60994e-05
1.60996e-05
1.6099e-05
1.60985e-05
1.60982e-05
1.6098e-05
1.6098e-05
1.6098e-05
1.60981e-05
1.60982e-05
1.60983e-05
1.60984e-05
1.60985e-05
1.60986e-05
1.60988e-05
1.60992e-05
1.60998e-05
1.60962e-05
1.60827e-05
1.60667e-05
1.6094e-05
1.62684e-05
1.65707e-05
1.70394e-05
1.70713e-05
1.65721e-05
1.49418e-05
1.28189e-05
1.11705e-05
1.03095e-05
1.00007e-05
1.00002e-05
1e-05
1e-05
1e-05
1e-05
1e-05
1e-05
1e-05
1.00002e-05
1.06202e-05
1.60981e-05
1.60981e-05
1.60977e-05
1.60973e-05
1.60972e-05
1.60973e-05
1.60974e-05
1.60975e-05
1.60977e-05
1.60978e-05
1.6098e-05
1.60981e-05
1.60982e-05
1.60983e-05
1.60984e-05
1.60985e-05
1.60988e-05
1.60994e-05
1.6099e-05
1.60933e-05
1.60769e-05
1.60681e-05
1.60881e-05
1.62121e-05
1.6451e-05
1.67443e-05
1.71181e-05
1.71858e-05
1.67599e-05
1.5958e-05
1.45048e-05
1.28551e-05
1.15063e-05
1.06393e-05
1.01823e-05
1.00031e-05
1.00002e-05
1e-05
1e-05
1e-05
1e-05
1.60968e-05
1.60968e-05
1.60966e-05
1.60966e-05
1.60967e-05
1.60969e-05
1.60972e-05
1.60975e-05
1.60977e-05
1.60979e-05
1.60981e-05
1.60983e-05
1.60984e-05
1.60985e-05
1.60986e-05
1.60987e-05
1.60987e-05
1.60989e-05
1.60993e-05
1.60999e-05
1.60984e-05
1.60916e-05
1.60787e-05
1.60651e-05
1.60758e-05
1.61244e-05
1.62516e-05
1.64601e-05
1.67162e-05
1.6959e-05
1.72232e-05
1.72593e-05
1.70062e-05
1.6454e-05
1.56962e-05
1.46265e-05
1.3431e-05
1.2293e-05
1.13827e-05
1.07305e-05
1.03101e-05
1.60955e-05
1.60958e-05
1.60959e-05
1.60962e-05
1.60966e-05
1.6097e-05
1.60974e-05
1.60978e-05
1.60981e-05
1.60984e-05
1.60986e-05
1.60988e-05
1.6099e-05
1.60991e-05
1.60992e-05
1.60993e-05
1.60994e-05
1.60994e-05
1.60995e-05
1.60997e-05
1.61002e-05
1.61005e-05
1.60993e-05
1.60939e-05
1.60839e-05
1.60719e-05
1.60639e-05
1.60725e-05
1.61131e-05
1.61876e-05
1.6313e-05
1.64855e-05
1.66858e-05
1.68926e-05
1.70748e-05
1.72537e-05
1.73315e-05
1.72572e-05
1.70158e-05
1.66096e-05
1.61049e-05
1.60945e-05
1.60951e-05
1.60956e-05
1.60962e-05
1.60968e-05
1.60973e-05
1.60978e-05
1.60983e-05
1.60987e-05
1.6099e-05
1.60993e-05
1.60995e-05
1.60997e-05
1.60999e-05
1.61e-05
1.61002e-05
1.61003e-05
1.61003e-05
1.61004e-05
1.61004e-05
1.61005e-05
1.61008e-05
1.61012e-05
1.61016e-05
1.6101e-05
1.60984e-05
1.60926e-05
1.60836e-05
1.60734e-05
1.60654e-05
1.6063e-05
1.60727e-05
1.61e-05
1.61496e-05
1.6221e-05
1.63186e-05
1.64403e-05
1.6583e-05
1.67365e-05
1.68909e-05
1.703e-05
1.60937e-05
1.60947e-05
1.60955e-05
1.60963e-05
1.60971e-05
1.60977e-05
1.60983e-05
1.60988e-05
1.60992e-05
1.60996e-05
1.61e-05
1.61002e-05
1.61005e-05
1.61007e-05
1.61009e-05
1.6101e-05
1.61012e-05
1.61013e-05
1.61014e-05
1.61015e-05
1.61016e-05
1.61017e-05
1.61018e-05
1.6102e-05
1.61024e-05
1.61028e-05
1.61029e-05
1.61023e-05
1.61002e-05
1.60964e-05
1.60906e-05
1.60831e-05
1.60748e-05
1.60672e-05
1.60622e-05
1.60612e-05
1.60662e-05
1.60799e-05
1.61034e-05
1.61401e-05
1.61816e-05
1.60931e-05
1.60945e-05
1.60956e-05
1.60966e-05
1.60974e-05
1.60981e-05
1.60988e-05
1.60993e-05
1.60998e-05
1.61002e-05
1.61006e-05
1.61009e-05
1.61012e-05
1.61015e-05
1.61017e-05
1.61019e-05
1.61021e-05
1.61022e-05
1.61024e-05
1.61025e-05
1.61027e-05
1.61028e-05
1.61029e-05
1.6103e-05
1.61031e-05
1.61032e-05
1.61035e-05
1.61039e-05
1.61042e-05
1.61045e-05
1.61044e-05
1.61037e-05
1.61022e-05
1.60997e-05
1.60961e-05
1.60915e-05
1.60861e-05
1.60801e-05
1.60739e-05
1.60682e-05
1.60637e-05
1.60927e-05
1.60944e-05
1.60958e-05
1.60968e-05
1.60977e-05
1.60985e-05
1.60991e-05
1.60997e-05
1.61003e-05
1.61007e-05
1.61011e-05
1.61015e-05
1.61018e-05
1.61021e-05
1.61024e-05
1.61027e-05
1.61029e-05
1.61031e-05
1.61033e-05
1.61035e-05
1.61036e-05
1.61038e-05
1.6104e-05
1.61041e-05
1.61042e-05
1.61043e-05
1.61044e-05
1.61046e-05
1.61047e-05
1.61049e-05
1.61052e-05
1.61055e-05
1.61058e-05
1.61061e-05
1.61062e-05
1.61062e-05
1.61058e-05
1.6105e-05
1.61039e-05
1.6102e-05
1.61003e-05
1.60925e-05
1.60945e-05
1.60959e-05
1.6097e-05
1.60979e-05
1.60987e-05
1.60994e-05
1.61001e-05
1.61006e-05
1.61011e-05
1.61016e-05
1.6102e-05
1.61024e-05
1.61027e-05
1.61031e-05
1.61034e-05
1.61036e-05
1.61039e-05
1.61041e-05
1.61043e-05
1.61045e-05
1.61048e-05
1.61049e-05
1.61051e-05
1.61053e-05
1.61054e-05
1.61056e-05
1.61057e-05
1.61058e-05
1.61059e-05
1.6106e-05
1.61062e-05
1.61063e-05
1.61065e-05
1.61067e-05
1.6107e-05
1.61072e-05
1.61075e-05
1.61077e-05
1.6108e-05
1.61082e-05
1.60925e-05
1.60945e-05
1.60959e-05
1.60971e-05
1.6098e-05
1.60989e-05
1.60996e-05
1.61003e-05
1.61009e-05
1.61015e-05
1.6102e-05
1.61025e-05
1.61029e-05
1.61033e-05
1.61036e-05
1.6104e-05
1.61043e-05
1.61046e-05
1.61049e-05
1.61051e-05
1.61054e-05
1.61056e-05
1.61058e-05
1.61061e-05
1.61063e-05
1.61064e-05
1.61066e-05
1.61068e-05
1.61069e-05
1.61071e-05
1.61072e-05
1.61073e-05
1.61075e-05
1.61076e-05
1.61077e-05
1.61078e-05
1.61079e-05
1.61081e-05
1.61082e-05
1.61084e-05
1.61085e-05
1.60924e-05
1.60945e-05
1.60959e-05
1.60971e-05
1.60981e-05
1.60989e-05
1.60997e-05
1.61005e-05
1.61011e-05
1.61017e-05
1.61023e-05
1.61028e-05
1.61033e-05
1.61037e-05
1.61041e-05
1.61045e-05
1.61049e-05
1.61052e-05
1.61055e-05
1.61058e-05
1.61061e-05
1.61064e-05
1.61067e-05
1.61069e-05
1.61072e-05
1.61074e-05
1.61076e-05
1.61078e-05
1.6108e-05
1.61081e-05
1.61083e-05
1.61085e-05
1.61086e-05
1.61088e-05
1.61089e-05
1.6109e-05
1.61092e-05
1.61093e-05
1.61094e-05
1.61095e-05
1.61096e-05
1.60923e-05
1.60943e-05
1.60958e-05
1.6097e-05
1.6098e-05
1.60989e-05
1.60998e-05
1.61005e-05
1.61012e-05
1.61019e-05
1.61025e-05
1.61031e-05
1.61036e-05
1.61041e-05
1.61046e-05
1.6105e-05
1.61054e-05
1.61058e-05
1.61061e-05
1.61065e-05
1.61068e-05
1.61071e-05
1.61074e-05
1.61077e-05
1.6108e-05
1.61082e-05
1.61085e-05
1.61087e-05
1.61089e-05
1.61091e-05
1.61093e-05
1.61095e-05
1.61097e-05
1.61098e-05
1.611e-05
1.61101e-05
1.61103e-05
1.61105e-05
1.61106e-05
1.61107e-05
1.61109e-05
1.60921e-05
1.60941e-05
1.60956e-05
1.60968e-05
1.60978e-05
1.60988e-05
1.60997e-05
1.61005e-05
1.61013e-05
1.6102e-05
1.61026e-05
1.61033e-05
1.61039e-05
1.61044e-05
1.61049e-05
1.61054e-05
1.61058e-05
1.61063e-05
1.61067e-05
1.61071e-05
1.61074e-05
1.61078e-05
1.61081e-05
1.61084e-05
1.61087e-05
1.6109e-05
1.61093e-05
1.61095e-05
1.61098e-05
1.611e-05
1.61102e-05
1.61104e-05
1.61106e-05
1.61108e-05
1.6111e-05
1.61112e-05
1.61114e-05
1.61115e-05
1.61117e-05
1.61119e-05
1.6112e-05
1.60918e-05
1.60938e-05
1.60952e-05
1.60964e-05
1.60975e-05
1.60985e-05
1.60994e-05
1.61003e-05
1.61012e-05
1.6102e-05
1.61027e-05
1.61034e-05
1.6104e-05
1.61046e-05
1.61052e-05
1.61057e-05
1.61062e-05
1.61067e-05
1.61071e-05
1.61076e-05
1.6108e-05
1.61084e-05
1.61088e-05
1.61091e-05
1.61095e-05
1.61098e-05
1.61101e-05
1.61103e-05
1.61106e-05
1.61109e-05
1.61111e-05
1.61113e-05
1.61116e-05
1.61118e-05
1.6112e-05
1.61122e-05
1.61124e-05
1.61126e-05
1.61127e-05
1.61129e-05
1.61131e-05
1.60914e-05
1.60933e-05
1.60947e-05
1.60959e-05
1.60971e-05
1.60981e-05
1.60991e-05
1.61001e-05
1.6101e-05
1.61018e-05
1.61026e-05
1.61034e-05
1.61041e-05
1.61048e-05
1.61054e-05
1.6106e-05
1.61065e-05
1.61071e-05
1.61076e-05
1.6108e-05
1.61085e-05
1.61089e-05
1.61094e-05
1.61097e-05
1.61101e-05
1.61104e-05
1.61108e-05
1.61111e-05
1.61114e-05
1.61117e-05
1.61119e-05
1.61122e-05
1.61124e-05
1.61127e-05
1.61129e-05
1.61131e-05
1.61133e-05
1.61135e-05
1.61137e-05
1.61139e-05
1.61141e-05
1.60909e-05
1.60927e-05
1.60941e-05
1.60953e-05
1.60965e-05
1.60976e-05
1.60987e-05
1.60997e-05
1.61006e-05
1.61016e-05
1.61024e-05
1.61033e-05
1.6104e-05
1.61048e-05
1.61055e-05
1.61061e-05
1.61067e-05
1.61073e-05
1.61079e-05
1.61084e-05
1.61089e-05
1.61094e-05
1.61099e-05
1.61103e-05
1.61107e-05
1.61111e-05
1.61114e-05
1.61118e-05
1.61121e-05
1.61124e-05
1.61127e-05
1.6113e-05
1.61132e-05
1.61135e-05
1.61137e-05
1.6114e-05
1.61142e-05
1.61144e-05
1.61147e-05
1.61149e-05
1.61151e-05
1.60902e-05
1.6092e-05
1.60933e-05
1.60946e-05
1.60958e-05
1.60969e-05
1.60981e-05
1.60991e-05
1.61002e-05
1.61012e-05
1.61021e-05
1.6103e-05
1.61039e-05
1.61047e-05
1.61054e-05
1.61061e-05
1.61068e-05
1.61075e-05
1.61081e-05
1.61087e-05
1.61092e-05
1.61098e-05
1.61103e-05
1.61107e-05
1.61112e-05
1.61116e-05
1.6112e-05
1.61124e-05
1.61127e-05
1.6113e-05
1.61134e-05
1.61137e-05
1.6114e-05
1.61142e-05
1.61145e-05
1.61148e-05
1.6115e-05
1.61153e-05
1.61155e-05
1.61157e-05
1.6116e-05
1.60894e-05
1.6091e-05
1.60924e-05
1.60937e-05
1.60949e-05
1.60961e-05
1.60973e-05
1.60984e-05
1.60995e-05
1.61005e-05
1.61016e-05
1.61025e-05
1.61035e-05
1.61043e-05
1.61052e-05
1.6106e-05
1.61067e-05
1.61074e-05
1.61081e-05
1.61087e-05
1.61094e-05
1.61099e-05
1.61105e-05
1.6111e-05
1.61115e-05
1.61119e-05
1.61124e-05
1.61128e-05
1.61132e-05
1.61135e-05
1.61139e-05
1.61142e-05
1.61145e-05
1.61148e-05
1.61151e-05
1.61154e-05
1.61157e-05
1.61159e-05
1.61162e-05
1.61164e-05
1.61167e-05
1.60884e-05
1.609e-05
1.60913e-05
1.60926e-05
1.60938e-05
1.60951e-05
1.60962e-05
1.60974e-05
1.60986e-05
1.60997e-05
1.61008e-05
1.61018e-05
1.61028e-05
1.61037e-05
1.61046e-05
1.61055e-05
1.61063e-05
1.61071e-05
1.61078e-05
1.61085e-05
1.61092e-05
1.61099e-05
1.61105e-05
1.6111e-05
1.61116e-05
1.61121e-05
1.61125e-05
1.6113e-05
1.61134e-05
1.61138e-05
1.61142e-05
1.61145e-05
1.61149e-05
1.61152e-05
1.61155e-05
1.61158e-05
1.61161e-05
1.61164e-05
1.61166e-05
1.61169e-05
1.61171e-05
1.60872e-05
1.60887e-05
1.609e-05
1.60913e-05
1.60925e-05
1.60938e-05
1.6095e-05
1.60962e-05
1.60973e-05
1.60985e-05
1.60996e-05
1.61007e-05
1.61018e-05
1.61028e-05
1.61038e-05
1.61047e-05
1.61056e-05
1.61065e-05
1.61073e-05
1.6108e-05
1.61088e-05
1.61095e-05
1.61101e-05
1.61107e-05
1.61113e-05
1.61119e-05
1.61124e-05
1.61129e-05
1.61133e-05
1.61137e-05
1.61141e-05
1.61145e-05
1.61149e-05
1.61152e-05
1.61156e-05
1.61159e-05
1.61162e-05
1.61165e-05
1.61167e-05
1.6117e-05
1.61173e-05
1.60858e-05
1.60873e-05
1.60885e-05
1.60898e-05
1.6091e-05
1.60922e-05
1.60934e-05
1.60946e-05
1.60958e-05
1.6097e-05
1.60981e-05
1.60993e-05
1.61004e-05
1.61015e-05
1.61025e-05
1.61035e-05
1.61045e-05
1.61054e-05
1.61063e-05
1.61071e-05
1.61079e-05
1.61087e-05
1.61094e-05
1.611e-05
1.61107e-05
1.61112e-05
1.61118e-05
1.61123e-05
1.61128e-05
1.61133e-05
1.61137e-05
1.61141e-05
1.61145e-05
1.61149e-05
1.61152e-05
1.61155e-05
1.61159e-05
1.61162e-05
1.61165e-05
1.61167e-05
1.6117e-05
1.60843e-05
1.60856e-05
1.60868e-05
1.60879e-05
1.60891e-05
1.60902e-05
1.60914e-05
1.60926e-05
1.60938e-05
1.6095e-05
1.60962e-05
1.60974e-05
1.60986e-05
1.60998e-05
1.61009e-05
1.61019e-05
1.61029e-05
1.61039e-05
1.61049e-05
1.61058e-05
1.61066e-05
1.61074e-05
1.61082e-05
1.61089e-05
1.61096e-05
1.61102e-05
1.61108e-05
1.61113e-05
1.61119e-05
1.61124e-05
1.61128e-05
1.61133e-05
1.61137e-05
1.6114e-05
1.61144e-05
1.61147e-05
1.61151e-05
1.61154e-05
1.61157e-05
1.61159e-05
1.61162e-05
1.60825e-05
1.60837e-05
1.60848e-05
1.60858e-05
1.60869e-05
1.6088e-05
1.60891e-05
1.60903e-05
1.60915e-05
1.60927e-05
1.60939e-05
1.60951e-05
1.60963e-05
1.60975e-05
1.60987e-05
1.60998e-05
1.61009e-05
1.61019e-05
1.61029e-05
1.61039e-05
1.61048e-05
1.61056e-05
1.61064e-05
1.61072e-05
1.61079e-05
1.61086e-05
1.61092e-05
1.61098e-05
1.61103e-05
1.61109e-05
1.61113e-05
1.61118e-05
1.61122e-05
1.61126e-05
1.6113e-05
1.61134e-05
1.61137e-05
1.6114e-05
1.61144e-05
1.61147e-05
1.61149e-05
1.60804e-05
1.60815e-05
1.60824e-05
1.60833e-05
1.60843e-05
1.60853e-05
1.60864e-05
1.60875e-05
1.60886e-05
1.60898e-05
1.60911e-05
1.60923e-05
1.60935e-05
1.60947e-05
1.60959e-05
1.60971e-05
1.60982e-05
1.60993e-05
1.61004e-05
1.61014e-05
1.61023e-05
1.61032e-05
1.61041e-05
1.61049e-05
1.61057e-05
1.61064e-05
1.61071e-05
1.61077e-05
1.61083e-05
1.61089e-05
1.61094e-05
1.61098e-05
1.61103e-05
1.61107e-05
1.61111e-05
1.61115e-05
1.61118e-05
1.61121e-05
1.61124e-05
1.61127e-05
1.6113e-05
1.60781e-05
1.6079e-05
1.60797e-05
1.60805e-05
1.60813e-05
1.60822e-05
1.60832e-05
1.60842e-05
1.60853e-05
1.60865e-05
1.60876e-05
1.60888e-05
1.609e-05
1.60913e-05
1.60925e-05
1.60936e-05
1.60948e-05
1.60959e-05
1.6097e-05
1.6098e-05
1.6099e-05
1.61e-05
1.61009e-05
1.61017e-05
1.61025e-05
1.61032e-05
1.61039e-05
1.61046e-05
1.61052e-05
1.61057e-05
1.61063e-05
1.61068e-05
1.61072e-05
1.61077e-05
1.61081e-05
1.61085e-05
1.61088e-05
1.61092e-05
1.61095e-05
1.61098e-05
1.61101e-05
1.60755e-05
1.60762e-05
1.60767e-05
1.60774e-05
1.6078e-05
1.60788e-05
1.60796e-05
1.60805e-05
1.60815e-05
1.60825e-05
1.60835e-05
1.60846e-05
1.60858e-05
1.60869e-05
1.6088e-05
1.60892e-05
1.60903e-05
1.60914e-05
1.60925e-05
1.60935e-05
1.60946e-05
1.60956e-05
1.60965e-05
1.60975e-05
1.60983e-05
1.60991e-05
1.60999e-05
1.61006e-05
1.61013e-05
1.61019e-05
1.61025e-05
1.61031e-05
1.61036e-05
1.6104e-05
1.61045e-05
1.61049e-05
1.61052e-05
1.61056e-05
1.61059e-05
1.61062e-05
1.61065e-05
1.60726e-05
1.6073e-05
1.60734e-05
1.60738e-05
1.60743e-05
1.60748e-05
1.60755e-05
1.60761e-05
1.60769e-05
1.60776e-05
1.60785e-05
1.60794e-05
1.60803e-05
1.60814e-05
1.60825e-05
1.60837e-05
1.60849e-05
1.60861e-05
1.60872e-05
1.60883e-05
1.60894e-05
1.60903e-05
1.60913e-05
1.60922e-05
1.6093e-05
1.60938e-05
1.60946e-05
1.60953e-05
1.60959e-05
1.60966e-05
1.60971e-05
1.60977e-05
1.60982e-05
1.60987e-05
1.60991e-05
1.60995e-05
1.60999e-05
1.61002e-05
1.61006e-05
1.61009e-05
1.61011e-05
1.60693e-05
1.60695e-05
1.60696e-05
1.60698e-05
1.607e-05
1.60702e-05
1.60705e-05
1.60708e-05
1.60712e-05
1.60715e-05
1.60719e-05
1.60723e-05
1.60727e-05
1.60732e-05
1.60736e-05
1.6074e-05
1.60744e-05
1.60748e-05
1.60752e-05
1.60756e-05
1.6076e-05
1.60765e-05
1.6077e-05
1.60775e-05
1.6078e-05
1.60785e-05
1.60791e-05
1.60796e-05
1.60801e-05
1.60806e-05
1.60811e-05
1.60816e-05
1.6082e-05
1.60825e-05
1.60829e-05
1.60833e-05
1.60836e-05
1.6084e-05
1.60843e-05
1.60846e-05
1.6085e-05
0.00364439
0.00714204
0.0101666
0.012185
0.0130602
0.0128618
0.0116887
0.00967972
0.00691928
0.00360653
0.000863178
1.02656e-05
1.0002e-05
1.04349e-05
1.822e-05
1.68876e-05
1.58903e-05
1.60321e-05
1.6112e-05
1.60987e-05
1.60971e-05
1.61008e-05
1.61012e-05
1.61005e-05
1.60997e-05
1.60986e-05
1.60972e-05
1.60956e-05
1.60941e-05
1.60928e-05
1.60918e-05
1.6091e-05
1.60906e-05
1.60903e-05
1.60901e-05
1.609e-05
1.60899e-05
1.60897e-05
1.60895e-05
1.60893e-05
1.60891e-05
1.60888e-05
1.60885e-05
1.60881e-05
1.60877e-05
1.60872e-05
1.60867e-05
1.60862e-05
1.60856e-05
1.60849e-05
1.60841e-05
1.60833e-05
1.60824e-05
1.60814e-05
1.60802e-05
1.6079e-05
1.60777e-05
1.60763e-05
1.60748e-05
1.60733e-05
1.60719e-05
1.60708e-05
1.60704e-05
1.60707e-05
1.6072e-05
1.6074e-05
1.60765e-05
1.60794e-05
1.60826e-05
1.6086e-05
1.60896e-05
1.60939e-05
1.60973e-05
1.61059e-05
0.00622727
0.010877
0.0144193
0.0165946
0.0175021
0.017306
0.0161404
0.0141301
0.0113531
0.00783734
0.00386894
0.000804263
0.000191237
1.0002e-05
1.01249e-05
1.74392e-05
1.73055e-05
1.594e-05
1.59915e-05
1.61118e-05
1.6106e-05
1.60971e-05
1.61003e-05
1.61013e-05
1.60999e-05
1.60986e-05
1.60974e-05
1.6096e-05
1.60944e-05
1.6093e-05
1.60919e-05
1.60912e-05
1.60907e-05
1.60903e-05
1.60901e-05
1.609e-05
1.60899e-05
1.60897e-05
1.60896e-05
1.60894e-05
1.60891e-05
1.60889e-05
1.60886e-05
1.60882e-05
1.60878e-05
1.60874e-05
1.60869e-05
1.60863e-05
1.60857e-05
1.6085e-05
1.60843e-05
1.60835e-05
1.60826e-05
1.60816e-05
1.60805e-05
1.60793e-05
1.6078e-05
1.60765e-05
1.6075e-05
1.60735e-05
1.60721e-05
1.6071e-05
1.60704e-05
1.60707e-05
1.60717e-05
1.60737e-05
1.60762e-05
1.6079e-05
1.60821e-05
1.60856e-05
1.60892e-05
1.60934e-05
1.60968e-05
1.61054e-05
0.00869737
0.0147677
0.0190307
0.0214727
0.0224755
0.0223171
0.0211733
0.0191742
0.0164098
0.0129125
0.00870173
0.00412261
0.000834947
0.00022072
1.00005e-05
1.00029e-05
1.63399e-05
1.77688e-05
1.61263e-05
1.59363e-05
1.61029e-05
1.61203e-05
1.60989e-05
1.60979e-05
1.61012e-05
1.61001e-05
1.60976e-05
1.6096e-05
1.60947e-05
1.60933e-05
1.60922e-05
1.60913e-05
1.60907e-05
1.60904e-05
1.60902e-05
1.609e-05
1.60899e-05
1.60898e-05
1.60896e-05
1.60894e-05
1.60892e-05
1.60889e-05
1.60886e-05
1.60883e-05
1.60879e-05
1.60875e-05
1.6087e-05
1.60865e-05
1.60859e-05
1.60852e-05
1.60845e-05
1.60837e-05
1.60828e-05
1.60818e-05
1.60807e-05
1.60795e-05
1.60782e-05
1.60768e-05
1.60753e-05
1.60738e-05
1.60724e-05
1.60712e-05
1.60705e-05
1.60706e-05
1.60715e-05
1.60733e-05
1.60757e-05
1.60786e-05
1.60817e-05
1.60851e-05
1.60887e-05
1.60929e-05
1.60963e-05
1.61048e-05
0.0111362
0.0188479
0.0239722
0.026801
0.0279915
0.0279349
0.0268531
0.0248911
0.0221502
0.0186879
0.0145158
0.00963305
0.00452208
0.000965715
0.000280233
1e-05
1.00361e-05
1.41961e-05
1.83045e-05
1.64371e-05
1.58702e-05
1.60482e-05
1.61357e-05
1.61084e-05
1.6092e-05
1.60966e-05
1.60999e-05
1.60978e-05
1.6095e-05
1.60933e-05
1.60923e-05
1.60915e-05
1.60909e-05
1.60904e-05
1.60902e-05
1.60901e-05
1.60899e-05
1.60898e-05
1.60897e-05
1.60895e-05
1.60893e-05
1.6089e-05
1.60887e-05
1.60884e-05
1.6088e-05
1.60876e-05
1.60871e-05
1.60866e-05
1.6086e-05
1.60854e-05
1.60847e-05
1.60839e-05
1.6083e-05
1.60821e-05
1.6081e-05
1.60798e-05
1.60785e-05
1.60772e-05
1.60757e-05
1.60742e-05
1.60727e-05
1.60715e-05
1.60707e-05
1.60706e-05
1.60713e-05
1.6073e-05
1.60753e-05
1.60781e-05
1.60812e-05
1.60846e-05
1.60882e-05
1.60924e-05
1.60958e-05
1.61042e-05
0.0137229
0.023179
0.0291974
0.0325209
0.0340126
0.0341508
0.0332015
0.0313305
0.028651
0.0252376
0.0211304
0.0163162
0.0108103
0.00520727
0.00123145
0.000383562
1e-05
1.00223e-05
1.24671e-05
1.82586e-05
1.72017e-05
1.59171e-05
1.59228e-05
1.613e-05
1.61477e-05
1.61024e-05
1.6088e-05
1.60938e-05
1.60972e-05
1.60953e-05
1.60926e-05
1.60913e-05
1.60909e-05
1.60906e-05
1.60903e-05
1.60901e-05
1.60899e-05
1.60898e-05
1.60897e-05
1.60896e-05
1.60894e-05
1.60891e-05
1.60889e-05
1.60885e-05
1.60882e-05
1.60878e-05
1.60873e-05
1.60868e-05
1.60862e-05
1.60856e-05
1.60849e-05
1.60841e-05
1.60833e-05
1.60824e-05
1.60813e-05
1.60802e-05
1.60789e-05
1.60775e-05
1.6076e-05
1.60745e-05
1.6073e-05
1.60717e-05
1.60708e-05
1.60706e-05
1.60711e-05
1.60726e-05
1.60749e-05
1.60776e-05
1.60807e-05
1.60841e-05
1.60877e-05
1.60918e-05
1.60952e-05
1.61035e-05
0.0171842
0.0278281
0.034644
0.0385443
0.0404552
0.0409013
0.0401829
0.0384869
0.0359386
0.0326249
0.0286042
0.0239004
0.0184909
0.0124266
0.00628737
0.00170342
0.000598762
1.02801e-05
1.00106e-05
1.03809e-05
1.63556e-05
1.82693e-05
1.63601e-05
1.57222e-05
1.59552e-05
1.61522e-05
1.61484e-05
1.61005e-05
1.60858e-05
1.6091e-05
1.60947e-05
1.60934e-05
1.60911e-05
1.60901e-05
1.60901e-05
1.60902e-05
1.60901e-05
1.609e-05
1.60898e-05
1.60896e-05
1.60895e-05
1.60892e-05
1.6089e-05
1.60887e-05
1.60883e-05
1.6088e-05
1.60875e-05
1.6087e-05
1.60865e-05
1.60858e-05
1.60852e-05
1.60844e-05
1.60836e-05
1.60827e-05
1.60816e-05
1.60805e-05
1.60793e-05
1.60779e-05
1.60764e-05
1.60749e-05
1.60734e-05
1.6072e-05
1.6071e-05
1.60706e-05
1.6071e-05
1.60723e-05
1.60744e-05
1.60771e-05
1.60802e-05
1.60835e-05
1.60871e-05
1.60912e-05
1.60946e-05
1.61028e-05
0.0219198
0.0328103
0.0402502
0.0447628
0.047193
0.0480649
0.0476949
0.0462844
0.0439687
0.0408429
0.0369757
0.0324133
0.0271704
0.0212306
0.0146545
0.00794857
0.00272933
7.50004e-05
0.000106348
1.00009e-05
1.00319e-05
1.22351e-05
1.88203e-05
1.80239e-05
1.61043e-05
1.57062e-05
1.59703e-05
1.61493e-05
1.61444e-05
1.60985e-05
1.60826e-05
1.60878e-05
1.60932e-05
1.60932e-05
1.60909e-05
1.60896e-05
1.60895e-05
1.60898e-05
1.609e-05
1.60899e-05
1.60896e-05
1.60894e-05
1.60891e-05
1.60889e-05
1.60885e-05
1.60882e-05
1.60877e-05
1.60873e-05
1.60867e-05
1.60861e-05
1.60855e-05
1.60847e-05
1.60839e-05
1.6083e-05
1.6082e-05
1.60809e-05
1.60796e-05
1.60783e-05
1.60768e-05
1.60753e-05
1.60738e-05
1.60724e-05
1.60712e-05
1.60707e-05
1.60708e-05
1.60719e-05
1.60739e-05
1.60765e-05
1.60796e-05
1.60829e-05
1.60865e-05
1.60906e-05
1.6094e-05
1.6102e-05
0.0275337
0.0380887
0.0459549
0.0510484
0.0540576
0.0554591
0.0555601
0.0545635
0.0526079
0.0497921
0.0461891
0.0418543
0.036826
0.0311174
0.0247204
0.0176631
0.0104672
0.00427628
0.000615381
0.000404976
1.00014e-05
1.0007e-05
1.0021e-05
1.38641e-05
1.91049e-05
1.77025e-05
1.60376e-05
1.5731e-05
1.59762e-05
1.61471e-05
1.61471e-05
1.60988e-05
1.60773e-05
1.60816e-05
1.60905e-05
1.60937e-05
1.60923e-05
1.60902e-05
1.60893e-05