/*--------------------------------*- C++ -*----------------------------------*\
| =========                 |                                                 |
| \\      /  F ield         | OpenFOAM: The Open Source CFD Toolbox           |
|  \\    /   O peration     | Version:  2312                                  |
|   \\  /    A nd           | Website:  www.openfoam.com                      |
|    \\/     M anipulation  |                                                 |
\*---------------------------------------------------------------------------*/
FoamFile
{
    version     2.0;
    format      ascii;
    arch        "LSB;label=32;scalar=64";
    class       volScalarField;
    location    "950";
    object      turbulenceProperties:I;
}
// * * * * * * * * * * * * * * * * * * * * * * * * * * * * * * * * * * * * * //

dimensions      [0 0 0 0 0 0 0];

internalField   nonuniform List<scalar> 
11040
(
0.0591532
0.0926842
1
0.0979356
0.272968
0.28834
0.290418
0.291723
0.288577
0.287415
0.284956
0.282823
0.280302
0.278335
0.276334
0.275346
0.275691
0.276928
0.278372
0.279797
0.2812
0.282611
0.283397
0.28306
0.281878
0.280978
0.280763
0.280557
0.280656
0.281521
0.283889
0.288681
0.295925
0.309956
0.339501
0.360776
0.350957
0.475562
1
0.427993
0.72502
0.0186254
0.0240314
0.0675329
0.366416
0.591877
0.309373
0.165359
0.0978227
0.0505665
0.0451132
0.0702861
0.0819807
0.0890909
0.0939345
0.0968764
0.0991637
0.101487
0.10366
0.105154
0.105898
0.106003
0.105725
0.104248
0.100975
0.0962165
0.09133
0.086948
0.0820653
0.0767393
0.0714959
0.067868
0.068557
0.0725284
0.0832873
0.10441
0.142354
0.218383
0.41913
1
0.506693
0.793105
0.0161625
0.0126628
0.0186128
0.0540448
0.320236
1
0.596238
0.319628
0.213186
0.162353
0.12046
0.0907219
0.0628338
0.0336931
0.0342148
0.0492268
0.0571324
0.0616757
0.0640424
0.064759
0.0643008
0.062916
0.0600117
0.0554416
0.0498256
0.0438818
0.0377603
0.0304934
0.019066
0.025221
0.0444559
0.0644874
0.0877427
0.116988
0.157383
0.220188
0.335646
0.608827
1
0.924754
0.658689
0.0142763
0.0115801
0.00927501
0.0116858
0.0565969
0.24891
1
1
0.516601
0.345734
0.252082
0.200872
0.16491
0.136821
0.1164
0.0998231
0.0880263
0.0792029
0.0733044
0.0699355
0.0682167
0.0680191
0.0693736
0.0716505
0.0737247
0.0750167
0.0752732
0.0744208
0.0727777
0.0721243
0.0770238
0.0919609
0.117128
0.1533
0.205039
0.285104
0.427132
0.730855
1
1
0.670636
0.0128527
0.010917
0.0101594
0.00652609
0.00757936
0.0492743
0.187421
0.782366
1
0.904551
0.524088
0.369247
0.29012
0.236702
0.202604
0.176301
0.15829
0.144734
0.13509
0.128409
0.123488
0.119967
0.117889
0.116983
0.116364
0.115511
0.114111
0.111981
0.109259
0.107008
0.108566
0.120156
0.146451
0.188569
0.250027
0.343264
0.500377
0.798991
1
1
0.785267
0.0112882
0.00975959
0.00887424
0.00858277
0.0043932
0.00368642
0.0374658
0.13459
0.427643
1
1
0.833071
0.54787
0.404607
0.327281
0.27478
0.241027
0.216918
0.199836
0.187952
0.17899
0.172125
0.167109
0.163667
0.160895
0.158246
0.155289
0.151652
0.147199
0.142511
0.140259
0.147642
0.173566
0.220609
0.290325
0.392777
0.554004
0.821727
1
1
0.930569
0.00976285
0.00876248
0.00787193
0.00761696
0.00723206
0.00295019
0.000607579
0.0239644
0.0918882
0.263721
0.825628
1
1
0.839102
0.580352
0.448159
0.37018
0.319163
0.285003
0.262437
0.246298
0.234497
0.225789
0.219472
0.214297
0.209544
0.204621
0.198944
0.192049
0.184008
0.176531
0.176591
0.197889
0.247357
0.323275
0.430454
0.585468
0.808486
1
1
1
0.0084047
0.00774439
0.00720292
0.00665528
0.00656963
0.00636155
0.0012839
0.000136578
0.0126866
0.05842
0.16443
0.423088
1
1
1
0.885225
0.631348
0.501716
0.422947
0.373117
0.34016
0.31853
0.303281
0.29239
0.283643
0.275849
0.268117
0.259573
0.249303
0.236833
0.222504
0.210997
0.219124
0.265207
0.344694
0.452449
0.593657
0.769394
0.940912
1
1
0.00722389
0.00676524
0.00641595
0.00606861
0.00567021
0.00577281
0.00539625
0.00188109
0.00171997
0.00248978
0.0325762
0.0991731
0.243389
0.593038
1
1
1
0.969781
0.707758
0.573543
0.494369
0.447354
0.417118
0.39671
0.381212
0.36788
0.355199
0.341972
0.326899
0.308663
0.286042
0.259533
0.241121
0.268129
0.347559
0.453992
0.578549
0.712477
0.828931
0.945763
0.940251
0.00619282
0.00587276
0.00563555
0.00542677
0.00518127
0.00490274
0.00501498
0.0045775
0.00248227
0.000878346
0.00367569
0.014425
0.055597
0.14118
0.317173
0.733744
1
1
1
1
0.827614
0.689305
0.611981
0.56452
0.532088
0.507265
0.485721
0.464401
0.441201
0.414345
0.381496
0.339179
0.285825
0.251111
0.316842
0.427422
0.540023
0.642922
0.721706
0.78879
0.806485
0.00530162
0.00507611
0.00491446
0.00477794
0.00464375
0.00446359
0.00428759
0.00429944
0.00415412
0.00290233
0.00073082
0.0015995
0.00149761
0.0260376
0.0770828
0.17619
0.370147
0.803327
1
1
1
1
1
0.906942
0.811536
0.748462
0.701812
0.662482
0.625068
0.585313
0.538834
0.480221
0.401723
0.288125
0.19383
0.352336
0.474427
0.562609
0.618366
0.65341
0.666393
0.0045334
0.00437388
0.00425931
0.00417271
0.00409023
0.00400127
0.00387928
0.00375157
0.00371517
0.0036941
0.00309528
0.000512466
0.000394032
0.00319022
0.00882544
0.0367966
0.0934807
0.197868
0.39202
0.79125
1
1
1
1
1
1
1
1
0.971046
0.898251
0.82525
0.743707
0.646046
0.524627
0.374798
0.293193
0.401599
0.485225
0.526865
0.539731
0.537954
0.00387307
0.00376012
0.00367751
0.00362093
0.00357404
0.00352469
0.00346735
0.0033893
0.00329596
0.00324095
0.00326305
0.00296612
0.0014013
0.000432827
0.00105695
0.00457804
0.0127656
0.0434893
0.101219
0.202758
0.381867
0.703331
1
1
1
1
1
1
1
1
1
1
1
1
0.841879
0.690816
0.597883
0.558933
0.536883
0.507585
0.4698
0.00330613
0.00322646
0.00316602
0.0031284
0.00310321
0.0030797
0.00305227
0.0030183
0.0029709
0.00290655
0.00285064
0.00287115
0.00277065
0.00205158
0.000235331
0.000162608
0.00163662
0.00562266
0.0148953
0.0450108
0.0995215
0.187159
0.319715
0.520189
0.812675
1
1
1
1
1
1
1
1
1
1
1
1
1
0.849859
0.730513
0.622912
0.00281931
0.00276364
0.00271909
0.00269398
0.00268179
0.00267395
0.00266546
0.00265349
0.00263625
0.00261047
0.00256918
0.00252706
0.00252674
0.00249963
0.00230153
0.00119959
0.000400382
5.01709e-05
0.00213414
0.00568672
0.0141948
0.0397042
0.0803608
0.140078
0.223568
0.33764
0.490011
0.682979
0.907641
1
1
1
1
1
1
1
1
1
1
1
1
0.00240135
0.00236275
0.00232978
0.00231303
0.00230863
0.00230968
0.00231209
0.00231372
0.00231264
0.00230723
0.00229597
0.00227363
0.00224775
0.00222651
0.0022473
0.0021489
0.00186469
0.000489603
0.000234113
2.37802e-05
0.00225871
0.00462467
0.0082952
0.0241888
0.0491051
0.0845738
0.132134
0.19368
0.271503
0.367832
0.483569
0.617579
0.768523
0.939387
1
1
1
1
1
1
1
0.00204541
0.00201873
0.00199441
0.00198345
0.00198364
0.00198936
0.00199747
0.00200624
0.00201425
0.00201997
0.00202235
0.00202038
0.00201257
0.00199699
0.00198542
0.00198414
0.00199429
0.00185302
0.00142789
0.000239644
0.000170918
1.95552e-05
0.00124926
0.0032895
0.000486974
0.00841039
0.0203127
0.0379719
0.0621053
0.0931568
0.131843
0.178926
0.235191
0.301588
0.37902
0.468181
0.57046
0.689838
0.832899
1
1
0.00175312
0.00173469
0.00171694
0.00171032
0.00171346
0.00172176
0.00173273
0.00174508
0.00175756
0.00176903
0.00177852
0.00178535
0.00178905
0.00178896
0.00178331
0.00177601
0.00177217
0.00178805
0.00177601
0.00163368
0.0011914
0.0001987
0.000157674
3.76712e-05
5.87247e-05
0.00130857
0.00295177
0.00374609
0.00232228
0.00821965
0.0180568
0.0316925
0.0493447
0.0714696
0.0983365
0.130192
0.167271
0.210254
0.259518
0.316187
0.379462
0.00151916
0.00150643
0.00149343
0.00148986
0.00149476
0.00150438
0.00151673
0.00153088
0.00154578
0.00156041
0.00157391
0.00158561
0.00159501
0.00160199
0.001606
0.00160698
0.00160356
0.00160273
0.00160759
0.00161972
0.00159854
0.00145434
0.00118151
0.000383171
0.000186413
9.0086e-05
2.59457e-05
0
0.000269486
0.00121698
0.00266282
0.00322962
0.000240416
0.00294576
0.00776349
0.0159918
0.0266896
0.0401593
0.0564471
0.0757785
0.0981103
0.00133026
0.00132135
0.00131174
0.0013102
0.00131603
0.00132609
0.0013388
0.00135339
0.00136908
0.00138498
0.0014004
0.0014148
0.00142767
0.00143867
0.00144756
0.00145431
0.00145859
0.00146029
0.00146014
0.0014634
0.00147267
0.00147962
0.00146765
0.00137379
0.00118474
0.000923746
0.000279949
0.000153621
8.34498e-05
6.03404e-05
1.31035e-05
0
3.62065e-05
0.000367895
0.00112398
0.00239641
0.00302127
0.0026452
0.00239349
0.00145278
0.00664933
0.00117402
0.00116773
0.00116062
0.00116048
0.00116676
0.00117682
0.00118939
0.00120381
0.00121943
0.00123552
0.0012515
0.00126692
0.0012814
0.00129459
0.00130622
0.00131615
0.00132433
0.0013307
0.00133509
0.00133777
0.00133987
0.00134593
0.00135444
0.0013682
0.0013613
0.00133597
0.00125456
0.00111201
0.000920735
0.000686679
0.000156256
0.000115966
7.42795e-05
6.03412e-05
4.40216e-05
1.5696e-05
0
0
0
0.000126797
0.000868175
0.00104264
0.00103821
0.00103301
0.00103386
0.0010403
0.00105013
0.00106229
0.00107621
0.00109134
0.00110707
0.00112287
0.0011384
0.00115333
0.00116735
0.00118024
0.00119183
0.00120203
0.00121078
0.00121811
0.00122409
0.00122829
0.00123165
0.00123503
0.00124127
0.00125032
0.00125927
0.00127072
0.00126941
0.00124998
0.00121771
0.00114854
0.00104311
0.000909979
0.000754958
0.000568331
0.000211125
0.000114177
6.63532e-05
5.80967e-05
4.91923e-05
3.91596e-05
0.000930611
0.00092752
0.000923807
0.000925353
0.00093177
0.000941222
0.00095281
0.000966056
0.000980456
0.000995488
0.00101071
0.00102583
0.00104057
0.00105465
0.00106787
0.00108008
0.00109118
0.0011011
0.0011098
0.00111738
0.0011236
0.0011286
0.00113283
0.00113622
0.00113977
0.00114386
0.0011501
0.00115833
0.001167
0.00117398
0.00118195
0.00118166
0.00117185
0.00115191
0.00112393
0.00107715
0.00101149
0.000927375
0.000829861
0.000718843
0.000590109
0.000834022
0.00083191
0.000829364
0.000831399
0.000837682
0.000846681
0.000857635
0.000870112
0.000883666
0.000897849
0.000912279
0.000926685
0.000940835
0.000954496
0.000967479
0.00097965
0.000990904
0.00100117
0.00101039
0.00101863
0.00102562
0.00103153
0.00103673
0.00104097
0.0010444
0.00104725
0.00104974
0.00105228
0.00105538
0.00105893
0.00106357
0.00106907
0.0010747
0.00107985
0.00108375
0.00108783
0.00108884
0.00108535
0.0010771
0.00106303
0.0010474
0.000749968
0.00074858
0.000746962
0.000749334
0.000755412
0.000763921
0.000774209
0.000785882
0.000798542
0.000811796
0.000825311
0.000838846
0.0008522
0.000865167
0.000877578
0.000889307
0.000900256
0.000910348
0.000919523
0.000927822
0.000934972
0.000941084
0.000946488
0.000950983
0.000954658
0.000957657
0.000960039
0.000961845
0.000963169
0.00096413
0.0009648
0.000965374
0.000965982
0.000966769
0.000967682
0.000968863
0.000970242
0.000971759
0.000973355
0.000974218
0.000975793
0.000676256
0.000675412
0.000674538
0.000677138
0.000682972
0.000690984
0.000700605
0.000711475
0.000723236
0.00073554
0.000748096
0.000760687
0.000773133
0.000785253
0.000796896
0.000807946
0.00081831
0.000827913
0.000836691
0.000844669
0.000851579
0.000857506
0.000862745
0.000867087
0.00087061
0.000873443
0.000875658
0.000877295
0.000878384
0.000878968
0.000879073
0.000878733
0.000877969
0.000876849
0.000875441
0.000873751
0.000871808
0.000869708
0.000867643
0.000865311
0.000863538
0.00061119
0.00061076
0.000610487
0.000613239
0.000618813
0.000626335
0.000635308
0.000645398
0.000656279
0.000667646
0.000679238
0.000690863
0.000702358
0.000713561
0.000724338
0.000734582
0.000744207
0.00075314
0.000761316
0.000768752
0.000775189
0.000780702
0.000785563
0.000789566
0.000792766
0.000795279
0.000797172
0.000798486
0.00079926
0.000799539
0.000799357
0.000798752
0.000797736
0.00079635
0.000794636
0.000792594
0.000790224
0.000787562
0.000784768
0.000781508
0.000778859
0.000553435
0.000553328
0.000553547
0.000556397
0.000561711
0.000568766
0.000577122
0.000586467
0.000596508
0.000606971
0.000617625
0.000628297
0.00063884
0.000649108
0.000658981
0.000668363
0.000677175
0.000685347
0.000692815
0.000699592
0.000705432
0.000710406
0.000714774
0.000718335
0.00072113
0.000723265
0.000724802
0.000725777
0.000726229
0.000726201
0.00072573
0.000724858
0.000723604
0.000722012
0.000720125
0.000717951
0.000715492
0.000712782
0.000709974
0.000706732
0.000704123
0.000501922
0.000502074
0.000502703
0.00050562
0.000510684
0.000517302
0.000525079
0.000533725
0.000542971
0.000552577
0.000562335
0.000572088
0.000581706
0.000591057
0.00060003
0.000608543
0.000616521
0.000623901
0.000630622
0.000636693
0.000641885
0.000646271
0.000650099
0.000653177
0.00065554
0.000657281
0.000658461
0.000659112
0.000659273
0.000658982
0.000658279
0.000657202
0.000655771
0.000654029
0.000652019
0.000649752
0.000647231
0.000644485
0.000641663
0.000638465
0.00063582
0.000455787
0.000456155
0.000457133
0.000460097
0.000464931
0.000471146
0.000478387
0.000486383
0.000494891
0.000503694
0.000512608
0.000521491
0.000530228
0.000538699
0.000546804
0.000554469
0.00056163
0.000568227
0.000574204
0.000579569
0.000584111
0.000587905
0.000591191
0.00059379
0.000595727
0.00059709
0.000597936
0.000598296
0.000598205
0.0005977
0.000596819
0.000595599
0.00059406
0.000592241
0.000590184
0.000587899
0.000585392
0.000582688
0.000579924
0.000576837
0.000574224
0.000414315
0.000414876
0.00041616
0.000419163
0.000423789
0.000429639
0.00043639
0.000443789
0.000451615
0.000459676
0.000467805
0.000475876
0.000483785
0.000491428
0.000498712
0.000505572
0.000511953
0.0005178
0.000523064
0.000527751
0.000531672
0.0005349
0.00053767
0.000539813
0.000541352
0.000542368
0.000542915
0.000543021
0.00054272
0.000542047
0.000541037
0.000539724
0.000538129
0.000536288
0.000534238
0.000531991
0.000529553
0.000526944
0.000524293
0.000521368
0.000518842
0.000376918
0.000377663
0.000379221
0.000382261
0.000386706
0.000392229
0.000398537
0.000405393
0.000412596
0.000419976
0.000427383
0.000434704
0.000441847
0.00044872
0.000455241
0.00046135
0.000467002
0.00047215
0.000476749
0.000480806
0.000484152
0.00048686
0.000489158
0.00049089
0.000492074
0.000492788
0.00049308
0.000492979
0.000492515
0.00049172
0.000490627
0.000489268
0.000487662
0.000485842
0.000483842
0.000481673
0.000479342
0.000476864
0.000474358
0.000471623
0.000469204
0.000343104
0.000344032
0.000345841
0.000348922
0.000353214
0.000358449
0.000364361
0.000370727
0.000377368
0.000384128
0.000390878
0.000397513
0.000403954
0.000410121
0.00041594
0.000421359
0.000426341
0.000430846
0.000434836
0.000438317
0.00044114
0.00044338
0.000445253
0.000446617
0.000447488
0.000447939
0.000448015
0.000447744
0.000447153
0.000446272
0.000445131
0.000443759
0.000442175
0.000440407
0.000438486
0.000436422
0.000434223
0.000431899
0.000429559
0.000427031
0.000424741
0.000312456
0.000313574
0.000315619
0.000318748
0.000322914
0.0003279
0.000333462
0.000339393
0.000345529
0.000351733
0.000357889
0.000363905
0.000369708
0.000375234
0.000380417
0.000385211
0.000389587
0.000393514
0.000396958
0.000399928
0.000402294
0.000404127
0.000405637
0.000406692
0.000407306
0.000407549
0.000407461
0.000407069
0.000406397
0.000405472
0.000404322
0.000402974
0.000401443
0.000399755
0.000397938
0.000396001
0.00039395
0.000391794
0.000389631
0.000387318
0.000385149
0.000284622
0.000285941
0.00028821
0.000291395
0.000295464
0.00030024
0.000305497
0.000311044
0.000316734
0.000322442
0.000328068
0.000333527
0.000338759
0.000343708
0.000348319
0.000352551
0.000356382
0.000359788
0.000362743
0.000365254
0.000367213
0.000368685
0.000369871
0.000370652
0.000371041
0.000371102
0.000370876
0.000370385
0.000369652
0.000368703
0.000367561
0.000366251
0.000364788
0.000363193
0.000361492
0.000359692
0.0003578
0.000355819
0.000353841
0.000351741
0.000349722
0.000259301
0.000260834
0.000263317
0.00026657
0.000270569
0.000275171
0.000280168
0.000285383
0.00029068
0.000295952
0.000301106
0.000306072
0.000310796
0.000315233
0.000319337
0.000323075
0.00032643
0.000329386
0.000331925
0.000334054
0.000335683
0.000336871
0.00033781
0.00033839
0.000338623
0.000338568
0.000338264
0.000337729
0.000336985
0.000336054
0.000334958
0.000333719
0.000332349
0.000330869
0.000329299
0.000327646
0.000325918
0.000324113
0.000322317
0.000320433
0.000318511
0.000236236
0.000237996
0.000240688
0.000244019
0.000247974
0.000252437
0.000257216
0.000262144
0.0002671
0.000271989
0.00027673
0.00028126
0.000285534
0.000289515
0.000293168
0.000296463
0.00029939
0.000301938
0.000304095
0.00030587
0.000307187
0.000308104
0.000308802
0.000309182
0.000309257
0.000309082
0.000308693
0.000308109
0.000307348
0.00030643
0.000305376
0.000304204
0.000302926
0.000301558
0.000300119
0.000298613
0.00029705
0.000295422
0.000293813
0.000292122
0.00029039
0.000215206
0.000217207
0.000220102
0.000223524
0.000227461
0.000231816
0.000236411
0.000241094
0.000245755
0.000250309
0.000254686
0.000258836
0.000262719
0.000266309
0.00026958
0.00027251
0.000275093
0.000277326
0.000279202
0.000280732
0.000281855
0.000282616
0.000283188
0.000283478
0.000283498
0.000283298
0.000282911
0.000282354
0.000281642
0.000280794
0.000279828
0.00027876
0.000277601
0.000276364
0.000275069
0.000273718
0.000272318
0.000270863
0.000269424
0.00026795
0.000266241
0.000196026
0.000198276
0.000201369
0.000204894
0.000208837
0.000213111
0.000217551
0.00022202
0.000226421
0.000230681
0.00023474
0.000238553
0.000242088
0.000245323
0.000248237
0.000250815
0.000253052
0.000254953
0.000256515
0.000257751
0.000258616
0.000259156
0.000259532
0.000259662
0.000259559
0.000259271
0.000258828
0.000258246
0.000257538
0.000256723
0.000255814
0.000254826
0.000253768
0.000252651
0.000251489
0.000250285
0.000249048
0.000247762
0.00024651
0.000245179
0.00024378
0.000178529
0.000181035
0.000184321
0.000187959
0.000191923
0.000196134
0.000200442
0.000204721
0.00020889
0.000212888
0.000216669
0.000220198
0.00022345
0.000226414
0.000229084
0.000231447
0.000233503
0.000235256
0.000236708
0.00023787
0.000238703
0.000239236
0.000239622
0.000239783
0.000239732
0.000239512
0.00023915
0.00023866
0.000238056
0.000237352
0.000236563
0.000235703
0.00023478
0.000233803
0.000232788
0.000231738
0.000230658
0.000229538
0.000228434
0.00022736
0.000225785
0.000162567
0.000165347
0.000168831
0.000172582
0.000176562
0.000180705
0.000184883
0.000188989
0.00019295
0.000196715
0.000200245
0.000203511
0.000206488
0.000209154
0.000211495
0.000213509
0.000215209
0.000216613
0.000217734
0.000218586
0.000219146
0.000219454
0.000219644
0.000219651
0.000219484
0.000219185
0.000218778
0.000218276
0.000217689
0.000217029
0.000216308
0.000215536
0.000214719
0.000213865
0.000212983
0.000212073
0.000211147
0.000210178
0.000209265
0.000208207
0.000207277
0.000148054
0.000151129
0.000154826
0.000158694
0.000162669
0.000166706
0.000170718
0.000174633
0.000178399
0.000181967
0.000185296
0.000188366
0.000191183
0.000193769
0.000196131
0.000198241
0.000200072
0.000201622
0.000202897
0.000203914
0.000204655
0.000205128
0.000205473
0.00020563
0.000205612
0.000205458
0.00020519
0.000204824
0.000204369
0.00020384
0.000203249
0.000202609
0.000201926
0.000201208
0.000200468
0.00019971
0.000198936
0.000198143
0.000197345
0.000196708
0.000195084
0.00013501
0.000138344
0.000142207
0.000146161
0.000150111
0.000154021
0.000157834
0.000161511
0.000165039
0.000168397
0.000171548
0.000174427
0.000176961
0.000179093
0.000180832
0.000182265
0.000183476
0.000184493
0.000185321
0.000185953
0.000186378
0.000186631
0.000186803
0.000186841
0.000186752
0.000186568
0.000186307
0.000185979
0.000185591
0.000185151
0.000184668
0.000184147
0.000183594
0.000183013
0.000182408
0.000181776
0.000181137
0.000180443
0.000179845
0.000178892
0.000178761
0.000123378
0.000126875
0.000130746
0.000134618
0.000138436
0.000142203
0.000145872
0.000149381
0.00015269
0.000155793
0.000158728
0.000161565
0.00016437
0.000167168
0.000169881
0.000172298
0.000174288
0.000175896
0.000177182
0.000178206
0.000178968
0.000179462
0.000179824
0.000180015
0.000180056
0.00017998
0.00017981
0.00017956
0.000179242
0.000178871
0.000178458
0.000178016
0.000177553
0.000177076
0.000176597
0.000176125
0.000175651
0.0001752
0.000174687
0.000174651
0.000172576
0.000112758
0.000116497
0.000120331
0.000123941
0.00012737
0.000130754
0.000134153
0.000137554
0.000140883
0.000144002
0.00014674
0.000148942
0.000150539
0.000151569
0.000152248
0.000152994
0.000153982
0.000155041
0.000156046
0.000156924
0.000157661
0.000158285
0.000158828
0.000159248
0.000159551
0.000159758
0.000159886
0.00015994
0.000159928
0.000159854
0.000159727
0.000159548
0.000159322
0.000159051
0.000158738
0.000158373
0.000157991
0.000157503
0.000157184
0.000156022
0.000157297
0.000102977
0.000107429
0.00011166
0.000115267
0.000118304
0.000121004
0.000123561
0.000126138
0.000128886
0.000131938
0.00013538
0.000139229
0.000143384
0.000147665
0.000151724
0.000154911
0.000157078
0.000158685
0.000159924
0.000160888
0.000161568
0.000161986
0.000162256
0.000162363
0.000162338
0.000162212
0.000162008
0.000161745
0.000161438
0.000161105
0.00016076
0.000160418
0.000160088
0.000159781
0.000159511
0.000159295
0.000159104
0.000159027
0.000158777
0.000159637
0.000156424
9.52629e-05
9.99911e-05
0.000104417
0.000108318
0.000111658
0.000114482
0.000116777
0.000118531
0.000119776
0.000120594
0.000121101
0.000121422
0.000121682
0.000121906
0.000122203
0.00012328
0.000125145
0.000127179
0.000129183
0.000131042
0.000132735
0.000134271
0.000135674
0.000136932
0.000138041
0.000139013
0.000139858
0.000140582
0.000141186
0.000141674
0.000142046
0.000142301
0.000142441
0.00014246
0.00014236
0.000142125
0.000141797
0.000141234
0.000140872
0.000138953
0.000141496
9.92117e-05
0.000105145
0.000108168
0.000108702
0.000107912
0.000107337
0.000108338
0.000111465
0.000116301
0.000121957
0.000127619
0.00013276
0.000137114
0.000140655
0.000143357
0.000144655
0.000144726
0.000144239
0.000143504
0.000142639
0.000141591
0.000140635
0.000139586
0.000138506
0.000137427
0.000136357
0.000135299
0.00013426
0.000133241
0.000132245
0.000131267
0.000130307
0.000129352
0.000128395
0.000127434
0.000126482
0.000125465
0.000124508
0.000123161
0.00012327
0.000117651
0.447418
0.345337
0.291105
0.244605
0.200072
0.157816
0.118009
0.0805113
0.0456262
0.0214609
0.01215
0.000859098
0.000231626
0.000843855
0.00169851
0.00153726
0.0013958
0.00132676
0.00125498
0.00118063
0.00110881
0.00103972
0.000972874
0.000908524
0.000846809
0.000787633
0.000731136
0.000677046
0.000625514
0.00057642
0.000529942
0.000485923
0.000444531
0.000405634
0.000369218
0.000335201
0.000303437
0.000273808
0.000246207
0.000220462
0.000196495
0.000174205
0.000153449
0.000134183
0.000116436
0.000100166
8.58175e-05
7.41222e-05
6.60352e-05
6.2335e-05
6.23942e-05
6.38458e-05
6.56881e-05
6.71931e-05
6.82267e-05
6.89444e-05
6.91521e-05
6.91447e-05
6.88582e-05
6.84521e-05
6.79092e-05
6.73344e-05
6.67251e-05
6.6111e-05
6.55515e-05
6.49671e-05
6.45672e-05
6.3873e-05
6.39765e-05
6.25485e-05
6.43605e-05
6.08728e-05
6.78183e-05
6.33697e-05
0.733999
0.523045
0.406626
0.328798
0.267372
0.214675
0.167725
0.124873
0.0849646
0.0479507
0.0220383
0.0112177
0.00536312
0.000222962
0.000587416
0.00157298
0.00148147
0.00132559
0.00125243
0.00118497
0.00111271
0.0010428
0.000975869
0.000911356
0.00084941
0.000790017
0.00073334
0.000679087
0.000627381
0.000578121
0.000531485
0.000487341
0.000445821
0.00040684
0.000370348
0.000336281
0.000304494
0.000274853
0.000247264
0.000221537
0.000197588
0.000175362
0.000154659
0.00013547
0.000117824
0.000101622
8.73812e-05
7.56432e-05
6.73084e-05
6.3114e-05
6.27003e-05
6.383e-05
6.55097e-05
6.69405e-05
6.79506e-05
6.86709e-05
6.89004e-05
6.89179e-05
6.8657e-05
6.82802e-05
6.77656e-05
6.7213e-05
6.66283e-05
6.6034e-05
6.54919e-05
6.49201e-05
6.4539e-05
6.38268e-05
6.39819e-05
6.24583e-05
6.44431e-05
6.05965e-05
6.7972e-05
6.32313e-05
0.965791
0.707649
0.537322
0.42541
0.343683
0.27835
0.222914
0.173995
0.129501
0.0880859
0.0498575
0.0225952
0.0108675
0.00547436
0.000148474
0.000218196
0.00143177
0.00142709
0.00126413
0.00118012
0.0011166
0.00104755
0.000979294
0.000914496
0.000852502
0.000792911
0.000735918
0.000681492
0.000629599
0.000580171
0.000533308
0.000489015
0.000447323
0.000408231
0.000371647
0.00033751
0.000305685
0.000276025
0.000248428
0.00022273
0.000198791
0.00017661
0.000155965
0.000136852
0.000119277
0.000103168
8.90279e-05
7.71583e-05
6.85766e-05
6.3983e-05
6.30071e-05
6.38324e-05
6.53272e-05
6.66932e-05
6.7699e-05
6.83727e-05
6.86556e-05
6.8688e-05
6.84661e-05
6.8114e-05
6.76314e-05
6.71035e-05
6.65446e-05
6.59677e-05
6.54486e-05
6.48764e-05
6.4533e-05
6.37977e-05
6.39978e-05
6.23843e-05
6.45258e-05
6.03533e-05
6.80744e-05
6.31102e-05
1
0.929999
0.695059
0.541363
0.43408
0.352561
0.286342
0.22987
0.179886
0.134295
0.0918239
0.0526616
0.023799
0.0110745
0.00587071
5.19093e-05
0.000388666
0.00122076
0.00137588
0.00121075
0.00111041
0.00104923
0.000985363
0.00091904
0.000855978
0.00079633
0.000739199
0.000684482
0.000632276
0.000582607
0.00053549
0.000490982
0.000449074
0.00040981
0.000373093
0.000338851
0.00030696
0.000277261
0.000249639
0.000223942
0.000200017
0.000177862
0.000157262
0.000138217
0.000120707
0.000104697
9.06329e-05
7.87124e-05
6.99442e-05
6.49995e-05
6.35143e-05
6.40165e-05
6.53033e-05
6.65777e-05
6.7555e-05
6.81849e-05
6.84967e-05
6.85358e-05
6.83436e-05
6.80073e-05
6.75511e-05
6.70379e-05
6.64992e-05
6.59351e-05
6.5431e-05
6.48585e-05
6.45374e-05
6.37802e-05
6.40192e-05
6.23138e-05
6.46025e-05
6.01064e-05
6.81713e-05
6.29903e-05
1
1
0.903359
0.68922
0.546104
0.442264
0.361396
0.294859
0.237719
0.186915
0.14046
0.0971234
0.0571287
0.0263188
0.0118211
0.00654941
0
0.000327223
0.0010099
0.00130041
0.00117768
0.00104863
0.000981604
0.000924843
0.000862422
0.000800491
0.000742459
0.000687692
0.000635335
0.00058535
0.000537902
0.000493125
0.000450982
0.000411507
0.000374621
0.00034025
0.000308271
0.000278519
0.000250868
0.000225156
0.00020124
0.000179105
0.000158542
0.000139556
0.000122113
0.000106195
9.21921e-05
8.02866e-05
7.13827e-05
6.61171e-05
6.41895e-05
6.4357e-05
6.54197e-05
6.65771e-05
6.74992e-05
6.8094e-05
6.84095e-05
6.84485e-05
6.82744e-05
6.79471e-05
6.75107e-05
6.70043e-05
6.64793e-05
6.59245e-05
6.54272e-05
6.48562e-05
6.45423e-05
6.37638e-05
6.40367e-05
6.22389e-05
6.46651e-05
5.98472e-05
6.82595e-05
6.28672e-05
1
1
1
0.89561
0.694451
0.556378
0.453869
0.372881
0.305707
0.247758
0.196114
0.148838
0.10472
0.063925
0.030833
0.0132178
0.00778278
0.000630875
0.000258129
0.000596194
0.00114818
0.00115221
0.00100549
0.000913531
0.000860386
0.00080681
0.000748387
0.00069147
0.000638302
0.000588222
0.000540602
0.000495493
0.000453025
0.000413294
0.000376219
0.000341703
0.000309617
0.000279795
0.000252105
0.000226374
0.000202461
0.00018034
0.000159809
0.000140874
0.000123497
0.000107661
9.37192e-05
8.18403e-05
7.28341e-05
6.72745e-05
6.49562e-05
6.47877e-05
6.56183e-05
6.66424e-05
6.74918e-05
6.80524e-05
6.83567e-05
6.83913e-05
6.82257e-05
6.79043e-05
6.74794e-05
6.69798e-05
6.64629e-05
6.59132e-05
6.54202e-05
6.4847e-05
6.45378e-05
6.37365e-05
6.40393e-05
6.21518e-05
6.47047e-05
5.95767e-05
6.83221e-05
6.27417e-05
1
1
1
1
0.911426
0.712896
0.574723
0.471052
0.388661
0.320138
0.260987
0.208301
0.160133
0.115252
0.0735948
0.0381622
0.0164956
0.00275286
0.00298544
0.000133512
0.000302524
0.000828777
0.0011051
0.00100433
0.000870701
0.000795979
0.00074751
0.000697207
0.000643549
0.000591614
0.000543229
0.000497987
0.00045535
0.000415307
0.000377928
0.000343204
0.000310996
0.000281102
0.000253364
0.000227607
0.000203687
0.000181573
0.00016107
0.000142184
0.000124869
0.00010911
9.52347e-05
8.33857e-05
7.42993e-05
6.84838e-05
6.58057e-05
6.53053e-05
6.58935e-05
6.677e-05
6.75322e-05
6.80489e-05
6.83304e-05
6.83548e-05
6.81893e-05
6.78701e-05
6.74493e-05
6.69552e-05
6.64419e-05
6.58933e-05
6.54028e-05
6.48232e-05
6.45187e-05
6.36936e-05
6.40217e-05
6.2049e-05
6.47166e-05
5.92963e-05
6.83528e-05
6.26122e-05
1
1
1
1
1
0.953514
0.747064
0.603393
0.495648
0.410173
0.339292
0.278323
0.224235
0.174995
0.129272
0.0866381
0.0491838
0.0221266
0.00706975
0.00539421
0.000139455
0.000195132
0.000241584
0.00084043
0.000975985
0.000865957
0.000753716
0.000689018
0.000643532
0.0005969
0.000548033
0.000500993
0.00045749
0.00041729
0.000379836
0.000344915
0.00031248
0.000282437
0.000254631
0.000228856
0.000204936
0.000182824
0.000162339
0.000143497
0.000126241
0.000110566
9.67604e-05
8.49556e-05
7.58058e-05
6.9776e-05
6.67597e-05
6.59317e-05
6.62619e-05
6.69745e-05
6.76336e-05
6.80911e-05
6.83383e-05
6.8343e-05
6.81697e-05
6.78461e-05
6.74244e-05
6.69306e-05
6.64169e-05
6.58656e-05
6.53746e-05
6.47863e-05
6.44837e-05
6.36349e-05
6.39828e-05
6.19306e-05
6.46985e-05
5.90073e-05
6.83524e-05
6.24739e-05
1
1
1
1
1
1
1
0.801225
0.645428
0.529878
0.439085
0.364445
0.300764
0.244714
0.194067
0.147292
0.103701
0.0643096
0.0323966
0.0130298
0.000781983
0.00285757
5.10644e-05
0.000204767
0.000394318
0.000786695
0.000842623
0.000743018
0.000647717
0.000589607
0.000547769
0.000505904
0.000462277
0.00042019
0.000381556
0.000346366
0.000313978
0.000283923
0.000256014
0.00023014
0.000206185
0.00018408
0.000163632
0.000144838
0.000127639
0.000112046
9.83124e-05
8.65685e-05
7.73765e-05
7.11631e-05
6.78296e-05
6.66757e-05
6.67343e-05
6.72631e-05
6.78015e-05
6.81835e-05
6.83838e-05
6.83583e-05
6.81687e-05
6.78333e-05
6.74055e-05
6.6906e-05
6.6388e-05
6.58308e-05
6.53351e-05
6.4737e-05
6.44321e-05
6.35605e-05
6.39222e-05
6.17978e-05
6.46495e-05
5.87113e-05
6.83215e-05
6.23219e-05
0.836168
1
1
1
1
1
1
1
0.883141
0.705619
0.57695
0.477651
0.397235
0.329531
0.270665
0.218055
0.169919
0.125256
0.0840752
0.0484279
0.0227284
0.00744398
0.00571307
0.00139502
8.07771e-05
0.000193537
0.000417065
0.000699265
0.00072726
0.000639435
0.00055248
0.000497245
0.00045921
0.000423354
0.000386047
0.000349423
0.000315606
0.000285052
0.000257225
0.000231507
0.000207583
0.000185422
0.000164943
0.000146182
0.000129059
0.000113571
9.9918e-05
8.82418e-05
7.90198e-05
7.26489e-05
6.90154e-05
6.75393e-05
6.73099e-05
6.76362e-05
6.80325e-05
6.83253e-05
6.8463e-05
6.83984e-05
6.81821e-05
6.78288e-05
6.73885e-05
6.68785e-05
6.6352e-05
6.57863e-05
6.52829e-05
6.46732e-05
6.43625e-05
6.34694e-05
6.3839e-05
6.16515e-05
6.45683e-05
5.84106e-05
6.82595e-05
6.21511e-05
0.665662
0.748946
1
1
1
1
1
1
1
1
0.792124
0.641918
0.529203
0.439958
0.366266
0.303282
0.247841
0.197797
0.151719
0.108975
0.0706112