/*--------------------------------*- C++ -*----------------------------------*\
| =========                 |                                                 |
| \\      /  F ield         | OpenFOAM: The Open Source CFD Toolbox           |
|  \\    /   O peration     | Version:  2312                                  |
|   \\  /    A nd           | Website:  www.openfoam.com                      |
|    \\/     M anipulation  |                                                 |
\*---------------------------------------------------------------------------*/
FoamFile
{
    version     2.0;
    format      ascii;
    arch        "LSB;label=32;scalar=64";
    class       volScalarField;
    location    "950";
    object      turbulenceProperties:L;
}
// * * * * * * * * * * * * * * * * * * * * * * * * * * * * * * * * * * * * * //

dimensions      [0 1 0 0 0 0 0];

internalField   nonuniform List<scalar> 
11040
(
0.000441962
0.000483792
0.00086853
0.00142018
0.0013703
0.00130663
0.00127976
0.00127213
0.00125362
0.00124456
0.00123257
0.00122338
0.00121277
0.0012046
0.00119646
0.00119142
0.00119017
0.00119168
0.00119456
0.00119819
0.00120293
0.00120931
0.00121609
0.001222
0.00122845
0.00124005
0.00125803
0.00127875
0.00130272
0.00133086
0.00136449
0.00140524
0.00145883
0.00154604
0.0017107
0.00183939
0.00182463
0.00243939
0.00412249
0.00247299
0.00232707
0.00117614
0.00105435
0.000668096
0.000879483
0.00243779
0.00440058
0.00694447
0.0109272
0.0187377
0.0195737
0.0115728
0.00928296
0.00795042
0.00710986
0.00648097
0.00602558
0.00570605
0.00549734
0.0053638
0.00527434
0.00522337
0.00520203
0.0052219
0.00530241
0.00547319
0.00582515
0.00643185
0.00726419
0.0083926
0.00987213
0.0115697
0.0129471
0.0141328
0.0146546
0.0145393
0.0139833
0.0132227
0.0127541
0.0112439
0.0113775
0.00795124
0.00149721
0.00161358
0.00129535
0.000825114
0.00156048
0.00312962
0.00533779
0.00837883
0.0106948
0.0128023
0.0155447
0.0190991
0.0253844
0.0443279
0.0407481
0.026608
0.0216979
0.0191055
0.0176534
0.0168866
0.0166362
0.01687
0.0178168
0.0197267
0.0227862
0.0272272
0.0337115
0.0449749
0.0783409
0.0652109
0.0412169
0.0321085
0.0271785
0.0240989
0.0219771
0.0203604
0.0191173
0.0185162
0.0168609
0.0162106
0.0175861
0.00177092
0.00190798
0.00215766
0.00173742
0.00117831
0.00208525
0.00372495
0.00594209
0.00956366
0.0123761
0.0146984
0.0167617
0.0185387
0.0207155
0.0225767
0.0245584
0.0262659
0.0276467
0.0285784
0.0289182
0.028946
0.0287844
0.0284775
0.0282897
0.0286259
0.029658
0.0314957
0.0342775
0.0380778
0.0421659
0.0438274
0.0413171
0.0371723
0.0333513
0.0303006
0.0278571
0.0259573
0.0249298
0.0231721
0.0218489
0.0286933
0.00205008
0.00215618
0.00209275
0.00295155
0.00255467
0.00152531
0.00254282
0.00419446
0.00652513
0.0100581
0.0138949
0.017094
0.0191281
0.021302
0.02285
0.0242538
0.0253655
0.0261715
0.0267427
0.0270997
0.0274191
0.0278608
0.0284878
0.0293376
0.0305878
0.0323637
0.034784
0.0379977
0.0421395
0.0470203
0.0512084
0.0518017
0.0483863
0.0437602
0.0396454
0.0362746
0.0336251
0.0320274
0.0303819
0.0284145
0.0377174
0.00241247
0.00251833
0.00255054
0.00242975
0.00454218
0.00563285
0.00181413
0.00293128
0.00457566
0.00700276
0.0101958
0.015011
0.018989
0.0223948
0.0245923
0.0264553
0.0279919
0.0290958
0.0299201
0.0305093
0.0310175
0.0316325
0.0325191
0.0337108
0.0353397
0.03752
0.0403806
0.0441008
0.0489071
0.054909
0.0612838
0.0647395
0.0621819
0.0563726
0.0507156
0.0460664
0.0424382
0.0400895
0.0385414
0.0361676
0.0456332
0.00283864
0.00290391
0.00299576
0.00290571
0.002854
0.00764479
0.0642589
0.0019872
0.00323438
0.00488658
0.00728546
0.0104192
0.0149435
0.0204554
0.0248982
0.0283843
0.0309674
0.0328245
0.0343337
0.0354516
0.0363119
0.0370872
0.0381002
0.0394498
0.0412798
0.0437292
0.046952
0.0511602
0.0566599
0.0638344
0.0725475
0.0799593
0.0797406
0.0725466
0.064546
0.05799
0.0529787
0.0496267
0.0479287
0.0453897
0.0541446
0.00332279
0.00336027
0.00338615
0.00345379
0.00332549
0.00324214
0.025498
0.515048
0.00224864
0.00343264
0.00512653
0.00740861
0.0105773
0.0146174
0.0205257
0.0265698
0.031544
0.0353668
0.0384266
0.040638
0.0423284
0.0435728
0.0448121
0.0462962
0.0482319
0.0508277
0.0542932
0.0588904
0.0649745
0.0731717
0.0841219
0.096764
0.102792
0.0950165
0.0831503
0.073416
0.0662388
0.0614321
0.0591164
0.0566474
0.0643043
0.00386612
0.0038937
0.00388994
0.00390635
0.00398348
0.00376363
0.00382585
0.0142158
0.0131298
0.00855322
0.00343958
0.00525236
0.00747084
0.0105003
0.0144484
0.0196017
0.0267434
0.0335303
0.0391768
0.0436605
0.0472611
0.0498359
0.0519598
0.053988
0.0562448
0.0590185
0.0626193
0.0674216
0.0738772
0.0827378
0.0952832
0.11303
0.132076
0.130227
0.11129
0.09523
0.084132
0.0769316
0.0732588
0.0707904
0.0772188
0.00448595
0.00450594
0.0044896
0.00446553
0.00448396
0.00455334
0.00431574
0.00452588
0.00930056
0.0375026
0.00583719
0.00324448
0.00523811
0.00747589
0.0103036
0.0141114
0.0188885
0.0252444
0.0336411
0.0415718
0.0481266
0.053163
0.0571933
0.0606607
0.0640304
0.0676595
0.071879
0.0770896
0.0838141
0.0929264
0.106015
0.12614
0.159197
0.193737
0.164825
0.131147
0.111055
0.0990916
0.0927235
0.0896016
0.0945955
0.00519393
0.00520835
0.00518237
0.00514205
0.00510641
0.00512887
0.00516563
0.00501217
0.00501238
0.00732213
0.0503127
0.0132338
0.0154614
0.00485574
0.00729945
0.0100535
0.013554
0.0181618
0.0238626
0.0314859
0.0413569
0.0504656
0.057492
0.063236
0.0684838
0.0736572
0.0791719
0.0855027
0.0931536
0.102851
0.115879
0.134946
0.167278
0.241747
0.371872
0.209991
0.158368
0.13444
0.122327
0.116893
0.119705
0.00600755
0.00601658
0.00598771
0.00593147
0.00587393
0.00582949
0.00583778
0.00586895
0.00578402
0.00566863
0.0066328
0.0844671
0.11346
0.00685037
0.00436274
0.00685288
0.00966888
0.0129601
0.0171597
0.0226195
0.0293754
0.037925
0.0481696
0.0582084
0.0667712
0.0740852
0.0811406
0.0887417
0.0973699
0.107594
0.120299
0.137104
0.161265
0.200819
0.279895
0.34947
0.24497
0.193586
0.169839
0.159632
0.159409
0.00694666
0.00694969
0.00691981
0.00685337
0.00677307
0.00669926
0.0066423
0.00662759
0.00665208
0.00661996
0.00644914
0.00691006
0.01824
0.100406
0.0235744
0.00832788
0.00584089
0.00898129
0.012252
0.0161182
0.0210503
0.0272126
0.0342501
0.0423789
0.0522638
0.0633771
0.074415
0.0846612
0.0943995
0.104574
0.116143
0.129973
0.147002
0.168264
0.194038
0.220146
0.23309
0.226287
0.21305
0.20578
0.210023
0.00803587
0.0080314
0.00800166
0.00792744
0.00782695
0.00772399
0.0076315
0.00755582
0.00751483
0.00752202
0.00752259
0.00735279
0.00745148
0.0103187
0.244439
0.405698
0.0119628
0.0101472
0.00770653
0.011214
0.0149975
0.019257
0.024258
0.0303184
0.0373117
0.0450461
0.0539595
0.0646252
0.0768912
0.0900233
0.103285
0.116372
0.129447
0.1428
0.156236
0.168908
0.179405
0.186776
0.191064
0.194508
0.204471
0.0093061
0.00929201
0.00926253
0.00918079
0.00906134
0.00892989
0.00880156
0.00868489
0.00858539
0.00851417
0.00849591
0.00849073
0.00837106
0.0083286
0.00887342
0.0205773
0.103976
2.23107
0.00872668
0.0124046
0.00950309
0.0133064
0.0170726
0.0212106
0.0259567
0.0315855
0.0382448
0.045806
0.0540669
0.0631888
0.0736146
0.0855929
0.0988614
0.112655
0.125844
0.137286
0.146249
0.153016
0.158223
0.162332
0.169747
0.0107951
0.0107699
0.0107404
0.0106509
0.0105119
0.0103521
0.0101884
0.0100293
0.00988224
0.00975382
0.00965074
0.00959482
0.00955982
0.0095179
0.00932736
0.0095832
0.010998
0.07329
0.220797
6.52702
0.00840625
0.0136471
0.00969873
0.0138539
0.0176742
0.021685
0.0260909
0.0311157
0.036959
0.0437311
0.0513701
0.0596401
0.0683056
0.0773229
0.0867199
0.0964312
0.106174
0.115624
0.124231
0.131166
0.138514
0.0125321
0.0124953
0.0124647
0.0123658
0.0122057
0.012017
0.0118178
0.0116174
0.0114232
0.0112432
0.0110828
0.0109471
0.0108436
0.0107837
0.0107122
0.010603
0.0104471
0.0110548
0.0148383
0.203087
0.338435
8.47284
0.0164205
0.00939884
0.0533782
0.0121403
0.0161781
0.0200906
0.0242455
0.0287209
0.033676
0.0392124
0.0453544
0.0520812
0.0592683
0.0667154
0.0741571
0.0814736
0.088473
0.0947736
0.101342
0.0144788
0.0144286
0.0143931
0.0142795
0.0140937
0.0138723
0.013635
0.0133915
0.0131509
0.0129208
0.0127078
0.012516
0.0123475
0.0122064
0.0121044
0.0120188
0.0119216
0.0117209
0.0116867
0.0125239
0.0182102
0.256348
0.367335
3.13166
1.56663
0.015147
0.00907721
0.0161207
0.0102165
0.0138371
0.0187972
0.0233541
0.0278974
0.0326768
0.0377113
0.0430129
0.0485156
0.0542304
0.0600663
0.0657453
0.071785
0.0165732
0.0165071
0.0164636
0.0163318
0.0161171
0.0158599
0.0155812
0.015291
0.0149994
0.014716
0.0144481
0.0142008
0.013977
0.0137775
0.0136055
0.0134614
0.0133565
0.0132388
0.0130907
0.0129076
0.0129613
0.0140858
0.01791
0.0913572
0.274205
0.826872
5.34847
0
0.153153
0.0162867
0.00952387
0.0157805
0.117788
0.0127845
0.0164894
0.0222003
0.0271626
0.0319675
0.0367363
0.0413809
0.0463186
0.0187987
0.0187169
0.0186645
0.0185129
0.018268
0.0179741
0.0176535
0.017317
0.0169751
0.0166388
0.0163157
0.016011
0.0157291
0.0154727
0.0152429
0.0150394
0.0148645
0.0147189
0.0145966
0.0144517
0.0142685
0.0141268
0.0141521
0.0149662
0.0175271
0.0242402
0.141371
0.35482
0.901244
1.48057
14.2236
0
3.10458
0.0931951
0.0178703
0.0100932
0.0147688
0.0286425
0.0498349
0.0137895
0.0186748
0.0211797
0.0210829
0.0210201
0.0208468
0.0205698
0.0202371
0.0198724
0.0194879
0.0190951
0.0187058
0.0183285
0.0179685
0.0176302
0.0173168
0.0170305
0.0167721
0.0165411
0.0163373
0.0161618
0.0160114
0.0158748
0.0157083
0.0155354
0.0153311
0.0153443
0.0155459
0.0164492
0.0187372
0.0238389
0.0362285
0.332447
0.529657
1.0496
1.45044
2.34347
10.872
0
0
0
0.453673
0.0254823
0.023734
0.0236223
0.0235468
0.0233493
0.0230381
0.0226641
0.022253
0.0218181
0.0213726
0.020929
0.0204969
0.020082
0.0196888
0.0193209
0.0189806
0.0186691
0.0183865
0.0181324
0.0179058
0.0177046
0.0175344
0.0173855
0.0172487
0.0170884
0.0169087
0.016748
0.0165754
0.0165585
0.0167537
0.0171284
0.0181271
0.0201753
0.0239674
0.0310529
0.0471068
0.208061
0.530306
1.21213
1.49518
1.93402
2.7374
0.0264829
0.0263561
0.0262656
0.0260414
0.0256935
0.0252757
0.0248154
0.0243277
0.0238273
0.0233278
0.0228398
0.0223693
0.0219212
0.0214995
0.0211068
0.0207443
0.0204126
0.0201114
0.0198402
0.0195963
0.0193836
0.0192012
0.0190429
0.018909
0.0187834
0.0186605
0.0185171
0.0183577
0.0182067
0.0180929
0.017977
0.0179761
0.0181041
0.0183821
0.0188116
0.0196376
0.0210477
0.0233676
0.0270077
0.0329502
0.0438429
0.0294475
0.0293053
0.0291967
0.0289431
0.0285557
0.028091
0.0275784
0.0270349
0.026477
0.0259195
0.0253738
0.0248469
0.0243436
0.0238686
0.0234246
0.023013
0.0226345
0.0222891
0.0219765
0.0216942
0.0214467
0.0212326
0.0210449
0.0208872
0.0207554
0.0206442
0.0205492
0.0204621
0.0203742
0.0202873
0.0201908
0.0200894
0.0199963
0.019921
0.0198739
0.0198304
0.0198391
0.0199203
0.0200797
0.0203445
0.0206505
0.0326508
0.0324928
0.0323629
0.0320765
0.0316465
0.0311316
0.0305632
0.0299608
0.0293425
0.0287246
0.0281194
0.0275346
0.0269755
0.0264469
0.0259521
0.0254927
0.0250693
0.0246821
0.0243312
0.0240138
0.0237359
0.0234956
0.0232853
0.0231083
0.0229612
0.0228397
0.0227414
0.0226646
0.0226065
0.0225641
0.0225352
0.0225154
0.0225016
0.0224903
0.0224826
0.0224755
0.0224704
0.0224684
0.0224701
0.0224929
0.022502
0.0361179
0.0359432
0.035788
0.035465
0.0349888
0.0344197
0.0337916
0.0331265
0.0324446
0.0317635
0.0310966
0.0304523
0.0298364
0.0292541
0.0287089
0.0282025
0.0277358
0.0273092
0.0269227
0.0265736
0.0262691
0.0260068
0.0257778
0.0255866
0.0254297
0.0253023
0.0252012
0.0251245
0.0250707
0.0250379
0.0250247
0.0250298
0.0250521
0.0250896
0.02514
0.025203
0.0252777
0.0253613
0.0254479
0.0255462
0.025632
0.0398762
0.0396833
0.039498
0.039134
0.0386071
0.0379791
0.0372867
0.0365548
0.0358058
0.0350585
0.0343275
0.0336219
0.0329481
0.0323115
0.031716
0.0311635
0.030655
0.0301908
0.0297714
0.0293937
0.0290661
0.0287856
0.0285415
0.0283397
0.0281766
0.0280469
0.0279473
0.0278756
0.0278295
0.027807
0.0278062
0.0278256
0.0278641
0.0279202
0.027992
0.0280793
0.028182
0.0282987
0.0284237
0.0285686
0.028695
0.0439558
0.0437426
0.0435213
0.0431105
0.0425274
0.041835
0.041073
0.0402695
0.0394492
0.0386324
0.0378346
0.0370657
0.0363326
0.0356413
0.0349957
0.0343978
0.0338487
0.0333491
0.0328991
0.0324959
0.0321488
0.0318537
0.0315983
0.0313894
0.0312235
0.031095
0.031
0.0309361
0.030901
0.0308922
0.0309076
0.0309452
0.0310038
0.0310813
0.0311755
0.0312861
0.0314127
0.031554
0.0317031
0.0318745
0.0320213
0.04839
0.0481533
0.0478885
0.0474236
0.0467775
0.0460138
0.045176
0.0442955
0.0433992
0.042509
0.0416415
0.0408072
0.0400135
0.0392668
0.0385712
0.0379287
0.0373405
0.0368072
0.0363293
0.0359035
0.0355402
0.0352344
0.0349711
0.0347587
0.0345937
0.0344698
0.0343826
0.0343297
0.0343084
0.0343161
0.0343503
0.0344088
0.0344902
0.0345922
0.0347123
0.03485
0.035005
0.0351757
0.0353542
0.0355567
0.0357323
0.053216
0.052951
0.0526328
0.0521048
0.051387
0.0505438
0.0496225
0.0486586
0.047681
0.0467132
0.0457726
0.0448707
0.0440149
0.043212
0.0424666
0.0417804
0.0411545
0.0405896
0.0400862
0.0396408
0.0392648
0.0389518
0.0386844
0.038472
0.0383114
0.0381954
0.0381194
0.0380806
0.0380761
0.0381031
0.0381588
0.0382406
0.0383472
0.0384758
0.0386239
0.0387906
0.0389758
0.0391779
0.0393877
0.0396228
0.0398298
0.0584755
0.0581747
0.0577906
0.0571876
0.0563873
0.0554544
0.0544408
0.0533858
0.0523208
0.0512704
0.050253
0.0492808
0.0483614
0.0475017
0.0467064
0.0459775
0.0453154
0.044721
0.0441948
0.0437328
0.0433477
0.0430314
0.0427634
0.0425548
0.0424022
0.0422977
0.0422364
0.042215
0.0422305
0.0422797
0.0423597
0.0424676
0.0426019
0.0427596
0.0429379
0.0431358
0.0433531
0.0435883
0.043831
0.0441002
0.0443403
0.0642149
0.0638676
0.0634011
0.0627084
0.0618119
0.060777
0.0596602
0.058505
0.057345
0.0562063
0.0551079
0.0540624
0.0530776
0.0521602
0.0513153
0.0505445
0.049848
0.0492264
0.0486799
0.0482045
0.0478136
0.0474976
0.0472324
0.0470309
0.0468897
0.0468001
0.0467564
0.0467553
0.0467935
0.0468676
0.0469744
0.0471108
0.0472749
0.0474638
0.0476742
0.0479052
0.0481565
0.0484265
0.0487037
0.0490083
0.0492851
0.0704862
0.0700769
0.0695073
0.0687059
0.0676964
0.0665442
0.0653108
0.0640444
0.0627807
0.0615467
0.0603621
0.0592399
0.0581876
0.0572118
0.0563173
0.0555057
0.0547766
0.05413
0.0535664
0.053081
0.0526881
0.0523764
0.0521181
0.0519278
0.051802
0.0517311
0.0517088
0.0517316
0.0517959
0.051898
0.0520345
0.0522019
0.0523984
0.0526207
0.0528653
0.0531312
0.0534179
0.0537244
0.0540373
0.0543782
0.0546943
0.0773478
0.076855
0.076156
0.0752222
0.0740784
0.0727898
0.0714237
0.0700326
0.0686543
0.0673166
0.0660396
0.0648363
0.0637141
0.0626785
0.0617343
0.0608828
0.0601227
0.0594534
0.0588751
0.0583822
0.0579901
0.0576857
0.0574368
0.0572601
0.0571519
0.0571018
0.0571028
0.0571511
0.0572431
0.0573746
0.057542
0.0577417
0.0579715
0.0582281
0.0585077
0.0588093
0.0591323
0.0594758
0.0598253
0.0602023
0.060563
0.0848651
0.0842596
0.0833978
0.0823018
0.0809972
0.0795488
0.0780299
0.0764975
0.0749914
0.0735397
0.0721627
0.0708731
0.0696777
0.068581
0.0675868
0.0666965
0.0659075
0.0652185
0.0646291
0.0641333
0.0637467
0.0634548
0.0632205
0.0630627
0.0629775
0.0629533
0.0629825
0.0630608
0.0631845
0.0633491
0.0635507
0.0637853
0.0640508
0.0643436
0.0646597
0.064998
0.0653578
0.0657387
0.0661243
0.0665376
0.066942
0.0931113
0.092354
0.0912876
0.0899923
0.0884937
0.0868563
0.0851598
0.0834659
0.0818157
0.0802376
0.0787514
0.0773689
0.076096
0.0749355
0.0738902
0.0729605
0.0721428
0.0714345
0.0708343
0.0703354
0.0699536
0.069673
0.0694518
0.069311
0.0692466
0.0692459
0.0693006
0.0694065
0.0695593
0.0697544
0.0699877
0.070255
0.0705539
0.0708809
0.0712315
0.0716047
0.0719995
0.0724164
0.072837
0.0732825
0.0737434
0.102168
0.101207
0.0998841
0.0983428
0.096609
0.094747
0.092843
0.090963
0.0891494
0.08743
0.0858235
0.0843403
0.0829849
0.0817584
0.0806619
0.0796948
0.0788522
0.0781302
0.0775262
0.0770331
0.0766658
0.0764072
0.0762099
0.076097
0.076064
0.0760969
0.0761866
0.0763283
0.0765176
0.0767496
0.0770197
0.0773238
0.0776591
0.0780221
0.0784082
0.0788165
0.0792454
0.0796968
0.0801488
0.0806287
0.081127
0.112124
0.110892
0.109248
0.107402
0.105382
0.103253
0.101106
0.099012
0.0970128
0.0951349
0.0933952
0.0918015
0.0903561
0.0890571
0.0879029
0.0868917
0.0860166
0.0852716
0.0846527
0.0841517
0.083783
0.0835298
0.0833392
0.0832368
0.0832182
0.083268
0.0833767
0.0835392
0.083751
0.0840069
0.0843021
0.084632
0.0849939
0.085384
0.0857974
0.0862329
0.0866892
0.0871685
0.0876485
0.088145
0.0887269
0.123074
0.121486
0.119441
0.117219
0.114851
0.112403
0.109974
0.107635
0.105426
0.103371
0.101484
0.0997703
0.0982297
0.0968584
0.0956523
0.0946076
0.0937162
0.0929694
0.0923612
0.0918822
0.0915449
0.0913298
0.0911781
0.0911174
0.0911424
0.0912363
0.0913881
0.0915927
0.0918452
0.0921401
0.0924723
0.0928374
0.0932323
0.0936536
0.0940963
0.09456
0.0950416
0.095547
0.0960452
0.0965795
0.0971483
0.135123
0.133071
0.130528
0.127843
0.125054
0.122231
0.119475
0.116858
0.114415
0.112163
0.110112
0.108261
0.106607
0.105139
0.10385
0.102733
0.101777
0.100974
0.100317
0.0997941
0.0994181
0.0991745
0.0989973
0.0989171
0.0989281
0.0990123
0.0991583
0.0993604
0.0996135
0.0999116
0.100249
0.100621
0.101024
0.101454
0.101905
0.102377
0.102867
0.10338
0.103891
0.104394
0.105135
0.148387
0.145723
0.142556
0.139307
0.136027
0.132777
0.129655
0.126725
0.124019
0.121549
0.119318
0.117322
0.115558
0.114019
0.112698
0.111582
0.110655
0.109898
0.109298
0.108843
0.108541
0.108369
0.10826
0.108245
0.108319
0.108461
0.10866
0.108909
0.109203
0.109538
0.109907
0.110306
0.110731
0.111181
0.111649
0.112136
0.112637
0.113166
0.113669
0.114257
0.11478
0.162941
0.15947
0.155515
0.151584
0.14775
0.14405
0.140551
0.137294
0.134299
0.131576
0.129131
0.126952
0.125014
0.123286
0.121747
0.120403
0.119259
0.118306
0.117531
0.116918
0.116472
0.116185
0.115976
0.115877
0.115878
0.11596
0.116107
0.116314
0.116573
0.116877
0.11722
0.117595
0.117998
0.118425
0.118869
0.119328
0.1198
0.120288
0.120784
0.121184
0.122203
0.178702
0.174258
0.169392
0.164683
0.16023
0.15605
0.152176
0.148614
0.145349
0.142368
0.139679
0.137307
0.13528
0.133616
0.132284
0.131203
0.130301
0.129551
0.128946
0.128486
0.128175
0.127987
0.127857
0.127822
0.127876
0.127998
0.128174
0.128399
0.128668
0.128974
0.129314
0.129682
0.130076
0.130494
0.130931
0.131392
0.131861
0.132374
0.132821
0.133534
0.13364
0.195579
0.190072
0.18433
0.178917
0.173877
0.16917
0.164821
0.160861
0.157295
0.154089
0.151174
0.14846
0.145874
0.143384
0.141051
0.139034
0.137412
0.136126
0.135113
0.134315
0.133725
0.133343
0.133062
0.132912
0.132874
0.132925
0.133047
0.133231
0.133466
0.133744
0.134055
0.13439
0.134744
0.135111
0.135482
0.135851
0.136223
0.13658
0.136988
0.137023
0.138678
0.214044
0.20708
0.200387
0.194456
0.189129
0.184146
0.179399
0.174886
0.170684
0.166924
0.163752
0.161281
0.159526
0.158404
0.157667
0.156873
0.155844
0.15476
0.153746
0.152872
0.152146
0.151536
0.15101
0.150604
0.150313
0.150113
0.14999
0.149936
0.149945
0.150013
0.150132
0.1503
0.150513
0.15077
0.151068
0.151417
0.151784
0.152256
0.152567
0.153705
0.152462
0.23445
0.224669
0.216081
0.209239
0.203787
0.199163
0.194971
0.190923
0.186794
0.182422
0.177736
0.17278
0.167732
0.162831
0.158439
0.155148
0.15298
0.151408
0.150216
0.149301
0.148659
0.148265
0.148011
0.147906
0.147924
0.148035
0.148218
0.148458
0.14874
0.149048
0.149368
0.149688
0.149999
0.150289
0.150547
0.150755
0.150939
0.151017
0.151259
0.150448
0.153543
0.253533
0.241515
0.23123
0.222842
0.216107
0.21071
0.206504
0.203391
0.201226
0.199819
0.198951
0.198401
0.197962
0.197591
0.197108
0.195386
0.192473
0.189393
0.186451
0.183801
0.181452
0.179371
0.177511
0.175874
0.174455
0.17323
0.172177
0.171285
0.170546
0.169954
0.169504
0.169195
0.169023
0.168996
0.169111
0.169386
0.169774
0.170446
0.170881
0.173238
0.170122
0.243479
0.22974
0.223308
0.222187
0.223782
0.22494
0.222818
0.21652
0.207471
0.197807
0.188992
0.181638
0.175839
0.171382
0.168125
0.166592
0.16649
0.167036
0.16788
0.168889
0.170131
0.171283
0.172565
0.173907
0.17527
0.176643
0.178022
0.179399
0.180769
0.182131
0.183486
0.184837
0.186201
0.187589
0.189002
0.190424
0.191966
0.193441
0.195555
0.19538
0.20471
0.00515175
0.00942359
0.0140963
0.0187514
0.0235131
0.0285477
0.0341055
0.0410298
0.0516476
0.057424
0.0243014
0.0296636
0.20123
0.0292681
0.0126926
0.0140688
0.0155931
0.0165663
0.0176757
0.0189473
0.0203338
0.0218438
0.0235012
0.0253191
0.0273136
0.0295102
0.0319295
0.0346136
0.037592
0.0409141
0.044616
0.0487642
0.0534043
0.0586174
0.0644836
0.0711051
0.0786188
0.0871898
0.0970204
0.1084
0.121665
0.137268
0.155865
0.178265
0.20545
0.238828
0.278757
0.322728
0.362226
0.383694
0.383291
0.374534
0.363984
0.355783
0.350342
0.346643
0.345548
0.34553
0.34691
0.34891
0.35164
0.354581
0.357758
0.36102
0.364041
0.367255
0.369471
0.373424
0.372766
0.381206
0.370444
0.391555
0.351522
0.375924
0.00899925
0.0123786
0.0166567
0.0209395
0.0251866
0.0295442
0.0341608
0.0393756
0.0460123
0.0561414
0.0605205
0.0247326
0.0125508
0.210007
0.0487334
0.0137779
0.0147655
0.0165714
0.0177014
0.0188757
0.0202613
0.0217784
0.0234293
0.0252416
0.0272319
0.0294237
0.0318368
0.0345131
0.0374841
0.0407979
0.0444908
0.0486268
0.0532544
0.0584484
0.0642915
0.0708814
0.0783505
0.0868626
0.09661
0.107878
0.120996
0.136366
0.154649
0.176575
0.203034
0.23541
0.273772
0.316241
0.355377
0.37896
0.381421
0.374627
0.364975
0.357126
0.351766
0.348024
0.34681
0.346666
0.347926
0.349787
0.352384
0.35522
0.358277
0.361439
0.36437
0.367518
0.369629
0.37369
0.372731
0.381751
0.369964
0.393333
0.350722
0.376737
0.0151521
0.0170508
0.0203553
0.0239701
0.0276572
0.0314322
0.0353713
0.0396369
0.044581
0.0509708
0.0605072
0.0634908
0.0267663
0.0141974
0.380738
0.209485
0.015208
0.015507
0.01754
0.0189407
0.0201889
0.0216806
0.0233478
0.0251563
0.0271357
0.0293196
0.0317291
0.0343956
0.0373567
0.0406587
0.0443438
0.0484656
0.0530807
0.0582544
0.0640721
0.0706287
0.0780506
0.0864989
0.0961624
0.107305
0.120268
0.135407
0.153358
0.174797
0.200565
0.231887
0.268712
0.310035
0.348808
0.373816
0.379566
0.374614
0.365996
0.35845
0.353073
0.349541
0.348047
0.347826
0.348895
0.35064
0.353082
0.355799
0.358725
0.361801
0.364609
0.367762
0.369659
0.373857
0.372633
0.382198
0.369484
0.394911
0.350188
0.37745
0.0232077
0.0234899
0.0254646
0.0280938
0.0310414
0.0341775
0.03748
0.0410095
0.0449274
0.0495607
0.0555667
0.0640604
0.0667788
0.0307177
0.0168555
1.81538
0.0870756
0.017977
0.0162781
0.0184875
0.0202866
0.021641
0.0232076
0.0250348
0.0270279
0.0291975
0.0315931
0.0342508
0.0372041
0.0404945
0.0441692
0.0482776
0.05288
0.0580362
0.06383
0.0703551
0.0777323
0.0861192
0.0957014
0.10673
0.119536
0.134459
0.152098
0.173075
0.198193
0.228505
0.263957
0.303917
0.341991
0.367973
0.376536
0.373539
0.366131
0.359072
0.353826
0.350504
0.348854
0.348598
0.34952
0.351189
0.353501
0.356145
0.358968
0.361977
0.364704
0.36786
0.36963
0.373955
0.372503
0.382625
0.36904
0.396525
0.349684
0.378157
0.0325851
0.0319334
0.0322758
0.0336062
0.0355899
0.037957
0.0405746
0.0434177
0.0465411
0.0500902
0.0543458
0.0597868
0.0670094
0.0702668
0.037132
0.0208713
0
0.11073
0.0222981
0.0173654
0.0192222
0.0216456
0.0232839
0.0248823
0.0268345
0.0290512
0.0314591
0.0340968
0.037032
0.040312
0.0439783
0.048075
0.0526635
0.057804
0.0635767
0.0700729
0.0774084
0.0857368
0.0952389
0.10616
0.118815
0.133532
0.150876
0.171419
0.195915
0.225286
0.259497
0.297962
0.335103
0.361756
0.372578
0.371563
0.36548
0.359076
0.354119
0.350972
0.349298
0.349042
0.349873
0.351499
0.353711
0.356322
0.359073
0.362033
0.364722
0.36787
0.369598
0.374046
0.372397
0.38308
0.368676
0.398234
0.349225
0.378887
0.0441043
0.0426748
0.0411
0.0408268
0.0415983
0.0430163
0.0448387
0.0469574
0.0493485
0.0520565
0.0552038
0.0590036
0.0637546
0.0697012
0.0732298
0.0464903
0.0278089
0.0425997
0.155149
0.0444363
0.0196449
0.0199124
0.0227637
0.0251676
0.0268884
0.0288343
0.0312227
0.033919
0.0368669
0.0401231
0.0437675
0.047854
0.0524345
0.0575624
0.0633149
0.069783
0.0770799
0.0853535
0.0947793
0.105596
0.118106
0.132624
0.149686
0.169821
0.193725
0.222224
0.255274
0.29231
0.328429
0.355536
0.368184
0.369096
0.364375
0.358725
0.354158
0.351186
0.349567
0.349333
0.350122
0.35172
0.353873
0.356451
0.35916
0.362092
0.364758
0.367918
0.369619
0.374201
0.372376
0.38361
0.368444
0.400033
0.348897
0.379634
0.0578557
0.056001
0.0522698
0.0501141
0.0494056
0.0496575
0.0505254
0.0518203
0.0534488
0.0553843
0.0576594
0.060367
0.06365
0.0676672
0.0724233
0.0757039
0.060421
0.0127859
0.0148152
0.409114
0.117692
0.0279896
0.0209816
0.0231209
0.026588
0.0292009
0.0312522
0.0336545
0.0365828
0.0399043
0.0435647
0.047624
0.0521773
0.057294
0.0630384
0.0694871
0.0767472
0.0849653
0.0943167
0.105033
0.117403
0.13173
0.148521
0.168263
0.191604
0.219277
0.251217
0.286898
0.321957
0.349262
0.363434
0.366173
0.362855
0.358041
0.353946
0.351205
0.349701
0.349519
0.350309
0.351896
0.35403
0.35658
0.359272
0.362199
0.364851
0.36805
0.369724
0.374448
0.372472
0.384238
0.368369
0.401916
0.348733
0.380407
0.0724288
0.0721309
0.0661723
0.0618762
0.0594027
0.0582406
0.0579545
0.0582769
0.0590489
0.0601843
0.0616525
0.0634731
0.0657083
0.0684421
0.0717385
0.0754155
0.0784057
0.0714159
0.0320587
0.0278081
0.376429
0.221524
0.15748
0.0274167
0.0240982
0.0270652
0.0310122
0.0340292
0.0365783
0.0395693
0.0432038
0.0473522
0.0519429
0.0570316
0.0627333
0.0691545
0.076394
0.0845743
0.0938572
0.104469
0.116696
0.130838
0.147368
0.166732
0.189528
0.216396
0.247263
0.281602
0.315564
0.342798
0.358244
0.362696
0.360839
0.356948
0.353417
0.350987
0.349661
0.349579
0.350409
0.352019
0.354159
0.356709
0.359404
0.362348
0.365006
0.368255
0.36992
0.374788
0.372693
0.384966
0.368464
0.403875
0.348726
0.381237
0.0880381
0.0912199
0.0833495
0.0766223
0.0720623
0.0691992
0.0675195
0.0666761
0.066446
0.0666875
0.0673175
0.0683018
0.0696468
0.0713874
0.0735664
0.0761645
0.0790173
0.0813962
0.0788283
0.0582033
0.0307138
0.0202894
1.6118
0.196392
0.0729738
0.0295451
0.0281529
0.0317865
0.0363617
0.0400292
0.0432154
0.0469144
0.0514341
0.0566582
0.0624621
0.0688739
0.0760404
0.084144
0.0933629
0.103897
0.116
0.129954
0.146213
0.165197
0.187462
0.213547
0.243366
0.276362
0.309164
0.336121
0.352598
0.358653
0.358287
0.355418
0.352543
0.350512
0.349428
0.3495
0.350413
0.352085
0.354257
0.356839
0.359559
0.362537
0.365222
0.368531
0.370211
0.375221
0.373039
0.385786
0.368736
0.405901
0.348875
0.382155
0.106786
0.114082
0.104845
0.0952007
0.0880579
0.0831094
0.0797267
0.0774677
0.0760358
0.0752319
0.0749225
0.075028
0.0755101
0.0763616
0.0775953
0.0792169
0.0811847
0.0833762
0.0851519
0.0845913
0.0768126
0.0431815
0.0431386
0.0193253
0.76511
0.202357
0.0643228
0.0335495
0.0328809
0.0372135
0.0428807
0.0476874
0.0517455
0.0562466
0.0617719
0.0683039
0.0756668
0.0838209
0.0929322
0.103295
0.115232
0.129027
0.145062
0.163688
0.185407
0.210688
0.239464
0.271129
0.302741
0.329253
0.346544
0.35407
0.355226
0.35346
0.351346
0.349785
0.349024
0.349295
0.350343
0.352107
0.354345
0.356983
0.359751
0.362779
0.365511
0.368891
0.370606
0.375753
0.373519
0.386693
0.369192
0.40798
0.349183
0.383192
0.132993
0.144537
0.133569
0.119594
0.108738
0.100951
0.0953445
0.091294
0.0883704
0.0862944
0.0848735
0.0839807
0.0835368
0.0834957
0.0838353
0.0845484
0.0856229
0.0870278
0.0886222
0.0899634
0.0903356
0.0867774
0.0750665
0.0323355
0.045248
0.0544403
0.696665
0.23272
0.0776279
0.0400352
0.0382386
0.0431263
0.0502591
0.057101
0.0627399
0.0682954
0.0749205
0.0829676
0.0923174
0.102842
0.114663
0.128138
0.143785
0.162024
0.183278
0.207844
0.235587
0.265877
0.296227
0.322189
0.340113
0.348993
0.351659
0.351082
0.349828
0.348823
0.348459
0.348982
0.350216
0.352107
0.354444
0.357163
0.360001
0.363095
0.365889
0.36935
0.371119
0.376395
0.374145
0.38769
0.369844
0.410101
0.349655
0.384387
0.176485
0.198254
0.180916
0.156033
0.13772
0.125041
0.115976
0.109324
0.104366
0.100629
0.0978027
0.09569
0.0941626
0.0931303
0.0925312
0.0923294
0.092507
0.0930488
0.0939174
0.0949791
0.0960097
0.0964852
0.0954151
0.0898309
0.0756692
0.0228505
0.0531165
0.0455759
0.903016
0.316391
0.195786
0.0542467
0.0462037
0.050401
0.05855
0.068046
0.0764315
0.0837469
0.0917179
0.101535
0.113452
0.127273
0.14294
0.160694
0.18112
0.204728
0.231465
0.260556
0.289665
0.31494
0.333258
0.343432
0.347586
0.348293
0.347969
0.347627
0.34773
0.348575
0.350041
0.352102
0.354571
0.357397
0.360327
0.363503
0.366375
0.369922
0.371762
0.377155
0.37493
0.388779
0.370705
0.412257
0.350295
0.385789
0.237769
0.332457
0.335438
0.234832
0.18824
0.16258
0.146064
0.134524
0.126099
0.119764
0.114902
0.11112
0.108177
0.105911
0.104204
0.102976
0.102185
0.101805
0.101808
0.102146
0.102728
0.103403
0.103867
0.103609
0.101597
0.0949412
0.0808844
0.0285755
0.0697126
0.0356945
2.59914
0.572637
0.293857
0.0942393
0.0604382
0.0603204
0.0690478
0.0812319
0.0934128
0.103708
0.113569
0.125368
0.140332
0.158443
0.179212
0.202296
0.227629
0.25499
0.282729
0.307439
0.326071
0.337373
0.342966
0.345058
0.345772
0.346196
0.34684
0.348073
0.349827
0.352104
0.35474
0.3577
0.360745
0.364019
0.366983
0.370623
0.37255
0.378044
0.375887
0.389963
0.371788
0.414444
0.351104
0.387452
0.214474
0.242646
0.300484
0.397549
0.318563
0.241739
0.200946
0.176308
0.159781
0.147948
0.139182
0.132514
0.127325
0.123223
0.11996
0.117378
0.115385
0.113914
0.112911
0.112327
0.112106
0.112185
0.11245
0.112744
0.112765
0.112005
0.109544
0.10298
0.0912958
0.0529587
0.094649
0.0693021
0.049356
0.118659
0.535749
0.75844
0.0954852
0.0748918
0.0816837
0.0966
0.114018
0.129745
0.143061
0.157136
0.175003
0.197465
0.223214
0.250152
0.276326
0.299732
0.318421
0.330887
0.33789
0.341337
0.343163
0.344484
0.345784
0.347486
0.349578
0.35212
0.35496
0.358086
0.361269
0.364658
0.36773
0.371465
0.373497
0.379071
0.377027
0.391244
0.373103
0.416662
0.352083
0.389447
0.173156
0.180627
0.190136
0.205926
0.22817
0.254104
0.266912
0.250406
0.222436
0.19825
0.180159
0.166822
0.156688
0.14884
0.14267
0.13777
0.133874
0.130802
0.128409
0.126588
0.125263
0.124373
0.123854
0.123623
0.123558
0.123502
0.12317
0.122125
0.119646
0.113995
0.105257
0.0839493
0.0641001
0.0530811
0.0739533