/*--------------------------------*- C++ -*----------------------------------*\
| =========                 |                                                 |
| \\      /  F ield         | OpenFOAM: The Open Source CFD Toolbox           |
|  \\    /   O peration     | Version:  2312                                  |
|   \\  /    A nd           | Website:  www.openfoam.com                      |
|    \\/     M anipulation  |                                                 |
\*---------------------------------------------------------------------------*/
FoamFile
{
    version     2.0;
    format      ascii;
    arch        "LSB;label=32;scalar=64";
    class       volScalarField;
    location    "950";
    object      turbulenceProperties:epsilon;
}
// * * * * * * * * * * * * * * * * * * * * * * * * * * * * * * * * * * * * * //

dimensions      [0 2 -3 0 0 0 0];

internalField   nonuniform List<scalar> 
11040
(
95.1793
99.6811
3.54641
1.15757
17.3109
18.9764
17.892
15.7008
13.6261
12.3247
11.1694
10.1753
9.39963
8.81254
8.35664
8.13422
8.12428
8.34866
8.78511
9.43973
10.3479
11.4923
12.9008
14.6323
16.7017
19.1609
21.9106
24.5525
26.7595
28.1463
28.3317
27.0548
24.476
21.073
17.5142
11.3258
4.31196
1.55394
0.248176
2.489
7.25247
0.863342
2.86614
28.1092
51.4355
49.5017
5.30138
0.58198
0.0742095
0.00567441
0.00371906
0.0230702
0.0440571
0.0645332
0.0832641
0.0995836
0.115882
0.134249
0.1546
0.175026
0.195792
0.217164
0.240083
0.25754
0.261165
0.24789
0.223237
0.19202
0.15356
0.113144
0.0780092
0.0547734
0.0463738
0.0431712
0.0494873
0.0682938
0.104371
0.167512
0.26182
0.599271
0.725227
8.38771
0.328084
0.257636
1.05819
14.8977
96.5983
75.1113
16.464
2.44624
0.619034
0.239021
0.083228
0.0291956
0.00738792
0.000660386
0.000765048
0.00358577
0.00713319
0.0107167
0.0138317
0.0161441
0.0175467
0.0178768
0.0162888
0.0129029
0.00898908
0.00564274
0.0031415
0.00131499
0.000190704
0.000530891
0.00442821
0.0158965
0.0405956
0.0854913
0.160067
0.27995
0.465745
0.70676
1.41298
2.19415
3.55048
0.168945
0.124248
0.082772
0.199461
14.9538
90.2021
92.4234
31.9617
5.3716
1.63728
0.630244
0.304881
0.162589
0.0873498
0.0514985
0.031278
0.0210883
0.0154935
0.0127338
0.0118324
0.0119959
0.0131457
0.0155368
0.01902
0.0225433
0.0250478
0.0257203
0.0242211
0.0211205
0.018651
0.0211258
0.0351062
0.0697143
0.138829
0.261077
0.466113
0.792816
1.22738
2.23432
3.82044
2.4693
0.0938001
0.0763826
0.0865596
0.0217128
0.038654
9.71333
68.607
98.5496
50.6198
11.7076
3.26003
1.24707
0.641676
0.354145
0.226007
0.151648
0.112625
0.0898225
0.0772848
0.0713146
0.0687665
0.0683324
0.0699424
0.0732815
0.0762501
0.077223
0.0750565
0.0692094
0.0604016
0.0514439
0.0480566
0.0598424
0.101558
0.194344
0.366305
0.660043
1.13265
1.78512
2.95066
5.23795
2.87816
0.0488651
0.041188
0.0390477
0.047739
0.00435069
0.00212465
4.53979
42.6549
92.4287
67.9099
24.4199
6.06526
2.34297
1.09691
0.637817
0.404814
0.288703
0.22389
0.187305
0.16832
0.158165
0.152926
0.151053
0.152049
0.152858
0.151135
0.144923
0.132863
0.115222
0.0951664
0.0800963
0.0832935
0.125473
0.235793
0.452658
0.830585
1.44194
2.30799
3.55434
6.1952
3.84252
0.0254949
0.0232854
0.0205362
0.023277
0.0249136
0.000777598
8.67595e-07
1.33068
21.2452
70.4311
77.9517
41.9771
13.0546
4.10154
1.85816
1.02681
0.653002
0.4633
0.360395
0.307605
0.279232
0.264985
0.258364
0.257217
0.256583
0.252658
0.242101
0.222201
0.192257
0.155505
0.120889
0.105292
0.135324
0.248371
0.4931
0.933521
1.65064
2.67921
3.97015
6.58841
4.84329
0.0135806
0.0129844
0.0125943
0.0116277
0.0135997
0.0149745
1.88037e-05
1.24975e-09
0.203953
7.91136
41.1446
73.7595
58.0785
26.2467
8.25062
3.16945
1.61707
0.997135
0.689998
0.535204
0.453882
0.41634
0.399221
0.394806
0.393876
0.389592
0.375992
0.347935
0.302729
0.243146
0.179058
0.130318
0.128831
0.219508
0.459987
0.920287
1.68156
2.77847
4.07592
6.32491
5.43179
0.00741001
0.00720253
0.00723017
0.00711069
0.006568
0.00835415
0.00769029
0.000102653
9.68779e-05
0.000446858
1.87955
17.5103
51.7758
64.4816
42.3758
17.7843
6.08511
2.67559
1.50763
1.00945
0.763659
0.651585
0.599505
0.580845
0.575887
0.57083
0.555232
0.520123
0.459423
0.373086
0.270198
0.172153
0.114948
0.149427
0.339672
0.757864
1.47733
2.52225
3.7425
5.45958
5.27799
0.00408793
0.00401593
0.00407469
0.00416346
0.00409469
0.00384898
0.00484565
0.00392382
0.000347073
4.36364e-06
0.00219008
0.212372
5.02196
25.4898
52.806
53.2534
32.0691
13.4525
5.06141
2.43587
1.50275
1.11971
0.944608
0.867335
0.83535
0.820067
0.800684
0.758894
0.682486
0.567662
0.420727
0.261295
0.126316
0.0696374
0.158565
0.464251
1.04791
1.92085
2.95039
4.14096
4.35337
0.00227474
0.00224967
0.00229515
0.0023679
0.00243509
0.00239118
0.00232643
0.00265167
0.0026179
0.000678617
1.78196e-06
7.86347e-05
5.53214e-05
0.761551
8.06969
28.8958
48.3871
43.9909
25.9417
11.3726
4.67038
2.48833
1.74577
1.43449
1.28541
1.21086
1.16183
1.1028
1.0104
0.870507
0.680968
0.456577
0.232969
0.0633062
0.0132498
0.149676
0.52249
1.13504
1.87829
2.619
2.93093
0.00127093
0.00126332
0.00128786
0.00133741
0.00139056
0.00143357
0.00142474
0.00139605
0.00148971
0.00161126
0.000879326
3.46617e-07
1.3086e-07
0.00123273
0.0391054
1.41197
9.70755
28.1561
42.2719
37.3354
22.6301
11.0741
5.40587
3.18053
2.33414
1.99385
1.82112
1.68812
1.54604
1.36639
1.13567
0.857022
0.556147
0.279322
0.0865383
0.0401219
0.181828
0.510644
0.940993
1.32586
1.52764
0.000710886
0.000709652
0.000721987
0.000750394
0.000786615
0.000821855
0.000850419
0.000857753
0.000845582
0.00086573
0.000967196
0.000723661
3.12546e-05
1.84209e-07
1.25611e-05
0.00301828
0.086581
1.71204
9.42082
24.7031
36.098
33.2286
23.0592
13.9783
8.14402
5.0587
3.59216
2.91421
2.56492
2.30031
2.0134
1.67707
1.30791
0.947272
0.647407
0.457967
0.413641
0.51164
0.690584
0.826508
0.821218
0.00039698
0.000397865
0.000403813
0.000419149
0.000441091
0.000465083
0.000488043
0.000507891
0.000518978
0.000517029
0.000518053
0.000572878
0.000536167
0.000166797
1.14488e-08
2.48921e-09
9.3458e-05
0.00460078
0.103837
1.53335
7.69691
19.351
29.3323
31.1251
26.2741
19.6509
13.8548
9.56305
6.7283
4.98897
3.94619
3.28967
2.81815
2.4311
2.10865
1.86463
1.71988
1.67193
1.69622
1.70909
1.48118
0.000220711
0.000222055
0.000224895
0.000233012
0.000245543
0.000260323
0.000275839
0.000290963
0.000304686
0.000314988
0.000317629
0.00031881
0.00033981
0.000346511
0.000266028
1.71519e-05
1.35318e-07
1.34757e-11
0.000285641
0.00390749
0.0740013
0.945671
4.32736
11.2564
19.7209
25.7801
27.313
25.2608
21.6247
17.6672
13.9459
10.7648
8.29018
6.5365
5.41077
4.77599
4.50316
4.44441
4.48161
4.54881
4.18416
0.000121896
0.000123043
0.000124397
0.000128633
0.000135574
0.000144141
0.000153624
0.000163609
0.000173568
0.000182891
0.000190825
0.000195257
0.000198259
0.000202327
0.000221351
0.000195949
0.000116208
3.31549e-07
1.28197e-08
4.89272e-13
0.00034991
0.00191233
0.0150691
0.234585
1.26408
3.95203
8.61049
14.3979
19.7095
23.2578
24.6942
24.3831
22.8973
20.731
18.3115
15.975
13.9651
12.3614
11.2163
10.6165
9.79462
6.71111e-05
6.79053e-05
6.85743e-05
7.0795e-05
7.45836e-05
7.93787e-05
8.48675e-05
9.0877e-05
9.7214e-05
0.000103592
0.000109721
0.000115259
0.000119711
0.000122377
0.000125887
0.000131775
0.000140649
0.000110242
3.89191e-05
1.40273e-08
3.22875e-09
2.0512e-13
2.9506e-05
0.000984664
5.70571e-07
0.0125718
0.123134
0.569639
1.72352
3.89625
7.13223
11.1172
15.3063
19.1494
22.2538
24.4012
25.6117
25.9746
25.7443
25.4292
24.1616
3.76669e-05
3.81937e-05
3.85723e-05
3.98141e-05
4.19552e-05
4.46987e-05
4.78926e-05
5.14717e-05
5.53433e-05
5.93917e-05
6.34736e-05
6.74571e-05
7.12144e-05
7.45581e-05
7.70884e-05
7.93453e-05
8.21529e-05
8.8571e-05
8.96366e-05
6.69362e-05
1.83831e-05
6.26854e-09
2.27843e-09
3.82664e-12
3.05502e-11
3.67456e-05
0.00073191
0.000860613
0.000322838
0.0102617
0.0754803
0.300372
0.842514
1.88445
3.56727
5.93282
8.9128
12.3572
16.014
19.8237
22.8129
2.19407e-05
2.22948e-05
2.2531e-05
2.3267e-05
2.45318e-05
2.61624e-05
2.80847e-05
3.0278e-05
3.27022e-05
3.52948e-05
3.79865e-05
4.07033e-05
4.33726e-05
4.59416e-05
4.83059e-05
5.0403e-05
5.19973e-05
5.39277e-05
5.66056e-05
6.02895e-05
5.91308e-05
4.18809e-05
1.80334e-05
1.23343e-07
4.86036e-09
1.87878e-10
7.19428e-13
0
3.05764e-08
2.74673e-05
0.000506418
0.000554955
3.07845e-08
0.000515507
0.00710735
0.0440419
0.157015
0.418958
0.91694
1.75658
2.97493
1.32546e-05
1.34877e-05
1.36398e-05
1.4092e-05
1.48629e-05
1.58592e-05
1.7043e-05
1.84068e-05
1.9935e-05
2.15965e-05
2.33588e-05
2.51879e-05
2.70429e-05
2.8881e-05
3.06622e-05
3.23556e-05
3.39028e-05
3.52585e-05
3.64577e-05
3.79967e-05
4.01542e-05
4.20127e-05
4.16739e-05
3.28247e-05
1.8228e-05
6.33288e-06
3.06755e-08
2.05492e-09
1.32396e-10
3.12105e-11
3.31796e-14
0
3.4955e-12
1.25472e-07
1.90898e-05
0.000333308
0.000461327
0.000160091
6.77534e-05
5.39457e-05
0.00372188
8.22611e-06
8.3782e-06
8.47878e-06
8.76421e-06
9.24579e-06
9.86904e-06
1.06136e-05
1.14765e-05
1.24503e-05
1.35196e-05
1.46676e-05
1.58788e-05
1.71334e-05
1.84076e-05
1.9677e-05
2.09178e-05
2.21116e-05
2.32349e-05
2.42578e-05
2.51787e-05
2.60625e-05
2.72297e-05
2.85559e-05
3.02885e-05
3.01976e-05
2.84788e-05
2.24866e-05
1.38503e-05
6.22156e-06
1.70986e-06
2.21228e-09
5.72704e-10
7.67534e-11
3.01436e-11
7.34477e-12
7.18591e-14
0
0
0
9.76321e-10
5.64075e-06
5.21649e-06
5.31593e-06
5.38441e-06
5.56886e-06
5.87596e-06
6.27348e-06
6.75009e-06
7.30456e-06
7.93301e-06
8.6273e-06
9.37801e-06
1.01773e-05
1.10151e-05
1.18783e-05
1.27534e-05
1.36263e-05
1.44835e-05
1.53125e-05
1.61025e-05
1.68462e-05
1.75072e-05
1.81134e-05
1.86981e-05
1.9432e-05
2.03217e-05
2.11853e-05
2.21921e-05
2.23043e-05
2.1161e-05
1.92082e-05
1.52659e-05
1.0288e-05
5.75253e-06
2.5357e-06
7.13137e-07
8.27961e-09
5.14176e-10
4.4214e-11
2.41125e-11
1.13513e-11
4.06004e-12
3.36509e-06
3.43032e-06
3.47788e-06
3.59915e-06
3.79811e-06
4.05553e-06
4.36492e-06
4.72561e-06
5.13533e-06
5.58947e-06
6.08273e-06
6.6108e-06
7.16823e-06
7.74736e-06
8.3402e-06
8.93861e-06
9.53409e-06
1.01181e-05
1.06827e-05
1.12247e-05
1.17254e-05
1.21767e-05
1.25852e-05
1.29438e-05
1.32947e-05
1.36544e-05
1.40996e-05
1.46273e-05
1.51638e-05
1.55977e-05
1.60634e-05
1.60752e-05
1.55692e-05
1.45487e-05
1.31775e-05
1.10774e-05
8.52511e-06
5.89138e-06
3.63451e-06
1.92627e-06
7.96634e-07
2.20123e-06
2.24425e-06
2.27782e-06
2.35874e-06
2.48938e-06
2.65823e-06
2.86146e-06
3.09859e-06
3.36816e-06
3.66743e-06
3.99324e-06
4.34292e-06
4.71334e-06
5.09994e-06
5.49772e-06
5.90166e-06
6.30643e-06
6.70653e-06
7.09636e-06
7.47311e-06
7.82406e-06
8.1444e-06
8.43878e-06
8.69625e-06
8.91836e-06
9.1111e-06
9.28022e-06
9.43985e-06
9.60726e-06
9.77969e-06
9.98035e-06
1.02022e-05
1.04177e-05
1.0604e-05
1.07312e-05
1.08536e-05
1.0847e-05
1.06596e-05
1.02897e-05
9.71382e-06
9.10263e-06
1.45639e-06
1.48493e-06
1.50892e-06
1.56355e-06
1.65028e-06
1.76221e-06
1.897e-06
2.05426e-06
2.23296e-06
2.43139e-06
2.64756e-06
2.87975e-06
3.12603e-06
3.38354e-06
3.64907e-06
3.91934e-06
4.19091e-06
4.46009e-06
4.72306e-06
4.97775e-06
5.21501e-06
5.43161e-06
5.63055e-06
5.80509e-06
5.95519e-06
6.08281e-06
6.18835e-06
6.27216e-06
6.33629e-06
6.38366e-06
6.41627e-06
6.43944e-06
6.45685e-06
6.47273e-06
6.48597e-06
6.50054e-06
6.51486e-06
6.52761e-06
6.53768e-06
6.52409e-06
6.52573e-06
9.72652e-07
9.91718e-07
1.00904e-06
1.04631e-06
1.10445e-06
1.17933e-06
1.2695e-06
1.37457e-06
1.49383e-06
1.62614e-06
1.77019e-06
1.92483e-06
2.08876e-06
2.2601e-06
2.43676e-06
2.61655e-06
2.79715e-06
2.97607e-06
3.1507e-06
3.31952e-06
3.47616e-06
3.61856e-06
3.74886e-06
3.86217e-06
3.95837e-06
4.03875e-06
4.10395e-06
4.15422e-06
4.18993e-06
4.21183e-06
4.22049e-06
4.21679e-06
4.20144e-06
4.17613e-06
4.14253e-06
4.10122e-06
4.05313e-06
4.00048e-06
3.9471e-06
3.88797e-06
3.83771e-06
6.54621e-07
6.67454e-07
6.80072e-07
7.0574e-07
7.45067e-07
7.95584e-07
8.56349e-07
9.27024e-07
1.00707e-06
1.09572e-06
1.19208e-06
1.29535e-06
1.40462e-06
1.51862e-06
1.63593e-06
1.75507e-06
1.87447e-06
1.99242e-06
2.10711e-06
2.2175e-06
2.31918e-06
2.41094e-06
2.49446e-06
2.56629e-06
2.62623e-06
2.67513e-06
2.71347e-06
2.74153e-06
2.75975e-06
2.7687e-06
2.76899e-06
2.76129e-06
2.74599e-06
2.72395e-06
2.69603e-06
2.66255e-06
2.62381e-06
2.58065e-06
2.53542e-06
2.48425e-06
2.44067e-06
4.43385e-07
4.521e-07
4.6137e-07
4.79215e-07
5.06045e-07
5.40392e-07
5.81627e-07
6.29457e-07
6.83475e-07
7.43141e-07
8.07835e-07
8.76985e-07
9.49939e-07
1.02581e-06
1.10363e-06
1.18239e-06
1.261e-06
1.33829e-06
1.41302e-06
1.48447e-06
1.54963e-06
1.60786e-06
1.66049e-06
1.70514e-06
1.74165e-06
1.77063e-06
1.79243e-06
1.80729e-06
1.81553e-06
1.8176e-06
1.81398e-06
1.80518e-06
1.79158e-06
1.77379e-06
1.75244e-06
1.7278e-06
1.70009e-06
1.66984e-06
1.63863e-06
1.60364e-06
1.57441e-06
3.01872e-07
3.07856e-07
3.14727e-07
3.27252e-07
3.45714e-07
3.69245e-07
3.97412e-07
4.29969e-07
4.66605e-07
5.06937e-07
5.50523e-07
5.96945e-07
6.45737e-07
6.96279e-07
7.47882e-07
7.99859e-07
8.51463e-07
9.01893e-07
9.503e-07
9.96191e-07
1.03755e-06
1.07405e-06
1.10676e-06
1.13407e-06
1.15586e-06
1.17258e-06
1.18451e-06
1.19183e-06
1.19479e-06
1.19373e-06
1.18898e-06
1.18092e-06
1.1698e-06
1.15608e-06
1.14016e-06
1.12225e-06
1.10251e-06
1.08126e-06
1.05959e-06
1.03567e-06
1.01545e-06
2.06383e-07
2.1055e-07
2.15691e-07
2.2457e-07
2.37385e-07
2.53628e-07
2.72996e-07
2.95282e-07
3.20254e-07
3.47633e-07
3.771e-07
4.0835e-07
4.41048e-07
4.74753e-07
5.08978e-07
5.43249e-07
5.7706e-07
6.09862e-07
6.4108e-07
6.70386e-07
6.96433e-07
7.1909e-07
7.39187e-07
7.55645e-07
7.684e-07
7.77778e-07
7.83997e-07
7.87199e-07
7.8757e-07
7.85346e-07
7.80771e-07
7.74107e-07
7.65539e-07
7.55355e-07
7.4384e-07
7.31133e-07
7.17338e-07
7.02655e-07
6.87802e-07
6.71621e-07
6.57772e-07
1.41563e-07
1.44515e-07
1.48399e-07
1.54758e-07
1.63735e-07
1.75035e-07
1.8844e-07
2.03785e-07
2.20893e-07
2.3956e-07
2.59557e-07
2.80655e-07
3.02615e-07
3.25127e-07
3.47843e-07
3.70434e-07
3.92562e-07
4.13853e-07
4.3392e-07
4.52548e-07
4.68847e-07
4.82786e-07
4.95006e-07
5.04786e-07
5.12093e-07
5.1717e-07
5.20183e-07
5.2124e-07
5.20476e-07
5.18058e-07
5.14156e-07
5.08949e-07
5.02564e-07
4.95191e-07
4.8702e-07
4.78143e-07
4.68629e-07
4.58597e-07
4.48524e-07
4.37673e-07
4.28269e-07
9.73421e-08
9.94787e-08
1.0244e-07
1.07043e-07
1.13391e-07
1.21314e-07
1.30658e-07
1.41288e-07
1.53072e-07
1.6586e-07
1.79485e-07
1.93777e-07
2.08565e-07
2.2363e-07
2.38727e-07
2.53627e-07
2.68104e-07
2.81907e-07
2.94779e-07
3.06583e-07
3.16733e-07
3.25248e-07
3.32615e-07
3.38352e-07
3.42448e-07
3.45079e-07
3.46371e-07
3.46405e-07
3.45274e-07
3.43097e-07
3.39988e-07
3.36069e-07
3.31426e-07
3.26183e-07
3.20463e-07
3.14326e-07
3.07819e-07
3.0101e-07
2.94215e-07
2.8697e-07
2.80577e-07
6.70542e-08
6.8636e-08
7.09142e-08
7.4282e-08
7.88137e-08
8.44167e-08
9.09769e-08
9.83898e-08
1.06555e-07
1.15362e-07
1.24689e-07
1.3441e-07
1.44399e-07
1.54507e-07
1.6456e-07
1.74399e-07
1.83873e-07
1.92817e-07
2.01061e-07
2.08519e-07
2.14809e-07
2.19968e-07
2.24362e-07
2.2767e-07
2.29891e-07
2.31155e-07
2.31554e-07
2.31147e-07
2.30001e-07
2.28197e-07
2.25813e-07
2.2293e-07
2.19605e-07
2.15919e-07
2.11951e-07
2.0774e-07
2.03315e-07
1.98716e-07
1.94153e-07
1.8933e-07
1.84991e-07
4.62434e-08
4.74417e-08
4.92083e-08
5.16983e-08
5.49663e-08
5.89637e-08
6.36064e-08
6.88134e-08
7.45086e-08
8.06107e-08
8.70295e-08
9.36729e-08
1.00449e-07
1.07255e-07
1.13969e-07
1.2048e-07
1.26691e-07
1.32493e-07
1.37777e-07
1.42488e-07
1.46382e-07
1.49497e-07
1.52106e-07
1.53993e-07
1.55163e-07
1.55709e-07
1.55698e-07
1.55172e-07
1.54178e-07
1.5277e-07
1.51e-07
1.48923e-07
1.46575e-07
1.44009e-07
1.41276e-07
1.384e-07
1.35401e-07
1.323e-07
1.29236e-07
1.2603e-07
1.23054e-07
3.19098e-08
3.28374e-08
3.42164e-08
3.60762e-08
3.84576e-08
4.13363e-08
4.46505e-08
4.83375e-08
5.23398e-08
5.6597e-08
6.10424e-08
6.56086e-08
7.02285e-08
7.48303e-08
7.93315e-08
8.36537e-08
8.77325e-08
9.14992e-08
9.48835e-08
9.7852e-08
1.00248e-07
1.02106e-07
1.03628e-07
1.0467e-07
1.05237e-07
1.054e-07
1.05205e-07
1.04683e-07
1.03867e-07
1.02791e-07
1.01494e-07
1.00009e-07
9.83613e-08
9.65832e-08
9.47086e-08
9.27523e-08
9.07271e-08
8.86423e-08
8.65932e-08
8.44614e-08
8.24393e-08
2.20205e-08
2.27521e-08
2.38343e-08
2.52368e-08
2.69905e-08
2.90843e-08
3.14723e-08
3.41064e-08
3.69427e-08
3.99362e-08
4.30377e-08
4.61977e-08
4.93676e-08
5.24979e-08
5.55326e-08
5.8418e-08
6.11122e-08
6.35725e-08
6.57553e-08
6.7641e-08
6.91304e-08
7.02509e-08
7.11504e-08
7.17307e-08
7.19981e-08
7.20014e-08
7.17743e-08
7.13378e-08
7.07132e-08
6.99254e-08
6.8998e-08
6.7954e-08
6.68099e-08
6.55858e-08
6.43041e-08
6.29742e-08
6.16042e-08
6.01979e-08
5.88196e-08
5.74026e-08
5.59808e-08
1.51906e-08
1.57761e-08
1.66289e-08
1.76963e-08
1.90014e-08
2.054e-08
2.22777e-08
2.41775e-08
2.6206e-08
2.83293e-08
3.0511e-08
3.27148e-08
3.49053e-08
3.70477e-08
3.9104e-08
4.10373e-08
4.28197e-08
4.44249e-08
4.58258e-08
4.70109e-08
4.79184e-08
4.85706e-08
4.90758e-08
4.93681e-08
4.94538e-08
4.93686e-08
4.91367e-08
4.8773e-08
4.82923e-08
4.77111e-08
4.70454e-08
4.63099e-08
4.55153e-08
4.46743e-08
4.3801e-08
4.29006e-08
4.19793e-08
4.10365e-08
4.01185e-08
3.91721e-08
3.82185e-08
1.04723e-08
1.09456e-08
1.16197e-08
1.24393e-08
1.34208e-08
1.45629e-08
1.58398e-08
1.72232e-08
1.86877e-08
2.02076e-08
2.17561e-08
2.33068e-08
2.48345e-08
2.63157e-08
2.77256e-08
2.90392e-08
3.02391e-08
3.13101e-08
3.2236e-08
3.30108e-08
3.3596e-08
3.40052e-08
3.43176e-08
3.44869e-08
3.4518e-08
3.44356e-08
3.42566e-08
3.39909e-08
3.36484e-08
3.32404e-08
3.27774e-08
3.22694e-08
3.17234e-08
3.11476e-08
3.05518e-08
2.99393e-08
2.9314e-08
2.86746e-08
2.80517e-08
2.7425e-08
2.67127e-08
7.21382e-09
7.59854e-09
8.1325e-09
8.76701e-09
9.5129e-09
1.03691e-08
1.13161e-08
1.23325e-08
1.3399e-08
1.44968e-08
1.56057e-08
1.67061e-08
1.77792e-08
1.88078e-08
1.97747e-08
2.06629e-08
2.14605e-08
2.21585e-08
2.27481e-08
2.32263e-08
2.35707e-08
2.37937e-08
2.39526e-08
2.40166e-08
2.39903e-08
2.38919e-08
2.37336e-08
2.35223e-08
2.32648e-08
2.29685e-08
2.26403e-08
2.22863e-08
2.19111e-08
2.15196e-08
2.11176e-08
2.07064e-08
2.02899e-08
1.98641e-08
1.94552e-08
1.90283e-08
1.85865e-08
4.96484e-09
5.27831e-09
5.70184e-09
6.19629e-09
6.76789e-09
7.41527e-09
8.12348e-09
8.87612e-09
9.65899e-09
1.04584e-08
1.126e-08
1.20501e-08
1.28157e-08
1.35463e-08
1.42318e-08
1.48613e-08
1.54272e-08
1.5924e-08
1.63459e-08
1.66911e-08
1.69451e-08
1.71124e-08
1.72353e-08
1.72914e-08
1.72838e-08
1.72251e-08
1.7124e-08
1.69852e-08
1.68133e-08
1.66136e-08
1.6391e-08
1.61502e-08
1.58942e-08
1.56263e-08
1.53513e-08
1.50704e-08
1.47853e-08
1.44942e-08
1.42109e-08
1.39391e-08
1.35501e-08
3.41373e-09
3.67036e-09
4.00763e-09
4.39485e-09
4.83441e-09
5.32534e-09
5.85724e-09
6.41808e-09
6.99696e-09
7.58333e-09
8.16666e-09
8.73666e-09
9.28283e-09
9.79427e-09
1.02617e-08
1.06783e-08
1.10409e-08
1.13484e-08
1.15998e-08
1.1795e-08
1.1927e-08
1.20028e-08
1.20513e-08
1.2058e-08
1.20253e-08
1.19625e-08
1.18754e-08
1.17671e-08
1.16407e-08
1.14992e-08
1.13457e-08
1.11825e-08
1.10116e-08
1.08347e-08
1.06542e-08
1.047e-08
1.02851e-08
1.00944e-08
9.91668e-09
9.71434e-09
9.53829e-09
2.34796e-09
2.55916e-09
2.82965e-09
3.1348e-09
3.47316e-09
3.84395e-09
4.2413e-09
4.65837e-09
5.08816e-09
5.5226e-09
5.95305e-09
6.37249e-09
6.77692e-09
7.1651e-09
7.53435e-09
7.87638e-09
8.18312e-09
8.45022e-09
8.6753e-09
8.85874e-09
8.99522e-09
9.08438e-09
9.15023e-09
9.18172e-09
9.1812e-09
9.1555e-09
9.10913e-09
9.04466e-09
8.96456e-09
8.87161e-09
8.76837e-09
8.65711e-09
8.53944e-09
8.41691e-09
8.29192e-09
8.1652e-09
8.03715e-09
7.9075e-09
7.77864e-09
7.67634e-09
7.42358e-09
1.62286e-09
1.79489e-09
2.01023e-09
2.25022e-09
2.511e-09
2.79105e-09
3.08635e-09
3.39309e-09
3.70847e-09
4.02895e-09
4.34833e-09
4.6568e-09
4.94221e-09
5.19313e-09
5.40555e-09
5.586e-09
5.74237e-09
5.87646e-09
5.98762e-09
6.07394e-09
6.13313e-09
6.16928e-09
6.19442e-09
6.2012e-09
6.19073e-09
6.16724e-09
6.13345e-09
6.09064e-09
6.03999e-09
5.98279e-09
5.92024e-09
5.85326e-09
5.78265e-09
5.70897e-09
5.63314e-09
5.55461e-09
5.47601e-09
5.3916e-09
5.31943e-09
5.20666e-09
5.19021e-09
1.13112e-09
1.26804e-09
1.43356e-09
1.61513e-09
1.81068e-09
2.02077e-09
2.2427e-09
2.47184e-09
2.70376e-09
2.93592e-09
3.16903e-09
3.40722e-09
3.65543e-09
3.91605e-09
4.18167e-09
4.42973e-09
4.64269e-09
4.8206e-09
4.96695e-09
5.08609e-09
5.17645e-09
5.23611e-09
5.2804e-09
5.30444e-09
5.31042e-09
5.30236e-09
5.28297e-09
5.25395e-09
5.21697e-09
5.1738e-09
5.12601e-09
5.07508e-09
5.02196e-09
4.96761e-09
4.91344e-09
4.86037e-09
4.80743e-09
4.75742e-09
4.70103e-09
4.69629e-09
4.47606e-09
7.88457e-10
8.99992e-10
1.02639e-09
1.15747e-09
1.2935e-09
1.4393e-09
1.59783e-09
1.76924e-09
1.95003e-09
2.13182e-09
2.30184e-09
2.44625e-09
2.5557e-09
2.62889e-09
2.67846e-09
2.73313e-09
2.80606e-09
2.88553e-09
2.96243e-09
3.03079e-09
3.08908e-09
3.13914e-09
3.18316e-09
3.21762e-09
3.24263e-09
3.25995e-09
3.27072e-09
3.27545e-09
3.27462e-09
3.26877e-09
3.25841e-09
3.24387e-09
3.22558e-09
3.20364e-09
3.17844e-09
3.14928e-09
3.11889e-09
3.08041e-09
3.05541e-09
2.96591e-09
3.06384e-09
5.47738e-10
6.49536e-10
7.59133e-10
8.63405e-10
9.59579e-10
1.05185e-09
1.14529e-09
1.24555e-09
1.35939e-09
1.4945e-09
1.65848e-09
1.85713e-09
2.09101e-09
2.35436e-09
2.62647e-09
2.85659e-09
3.02205e-09
3.14951e-09
3.25071e-09
3.33121e-09
3.38908e-09
3.42528e-09
3.44893e-09
3.45874e-09
3.45706e-09
3.44673e-09
3.42975e-09
3.40768e-09
3.38198e-09
3.35413e-09
3.32544e-09
3.29712e-09
3.26993e-09
3.24473e-09
3.22257e-09
3.20486e-09
3.18926e-09
3.1827e-09
3.16239e-09
3.23108e-09
2.97834e-09
4.00523e-10
4.86399e-10
5.78884e-10
6.71094e-10
7.58742e-10
8.39524e-10
9.10042e-10
9.67066e-10
1.00936e-09
1.0381e-09
1.05635e-09
1.0681e-09
1.07762e-09
1.08576e-09
1.09645e-09
1.13562e-09
1.20597e-09
1.28637e-09
1.36952e-09
1.45022e-09
1.52682e-09
1.59893e-09
1.66702e-09
1.72997e-09
1.78693e-09
1.83804e-09
1.88342e-09
1.92299e-09
1.95655e-09
1.98398e-09
2.00515e-09
2.01985e-09
2.02805e-09
2.02936e-09
2.02389e-09
2.01076e-09
1.99245e-09
1.9612e-09
1.94132e-09
1.83783e-09
1.97621e-09
4.70873e-10
5.94024e-10
6.65488e-10
6.7901e-10
6.59868e-10
6.46386e-10
6.71367e-10
7.52958e-10
8.9317e-10
1.08094e-09
1.29714e-09
1.52035e-09
1.73106e-09
1.91827e-09
2.0713e-09
2.14862e-09
2.15387e-09
2.12587e-09
2.08345e-09
2.03411e-09
1.97535e-09
1.92278e-09
1.86628e-09
1.80934e-09
1.75371e-09
1.69982e-09
1.64778e-09
1.59777e-09
1.54988e-09
1.50406e-09
1.46012e-09
1.41789e-09
1.37682e-09
1.33653e-09
1.29699e-09
1.25869e-09
1.21874e-09
1.18199e-09
1.1317e-09
1.13577e-09
9.4245e-10
545.224
368.016
212.277
116.78
58.1698
25.568
9.41829
2.55232
0.370842
0.0342277
0.0142702
3.99883e-06
1.11885e-08
3.60453e-06
6.56999e-05
4.26238e-05
2.79504e-05
2.19639e-05
1.69597e-05
1.28434e-05
9.68248e-06
7.27051e-06
5.42643e-06
4.02792e-06
2.97409e-06
2.18263e-06
1.59254e-06
1.15311e-06
8.28834e-07
5.90679e-07
4.17714e-07
2.92707e-07
2.03484e-07
1.40194e-07
9.57275e-08
6.47486e-08
4.3324e-08
2.86399e-08
1.86801e-08
1.19871e-08
7.55393e-09
4.66176e-09
2.80438e-09
1.63892e-09
9.28956e-10
5.0872e-10
2.74101e-10
1.52568e-10
9.61351e-11
7.63579e-11
7.66787e-11
8.41055e-11
9.42887e-11
1.03286e-10
1.09853e-10
1.14616e-10
1.16075e-10
1.16098e-10
1.1426e-10
1.1166e-10
1.08232e-10
1.04684e-10
1.01014e-10
9.74128e-11
9.42204e-11
9.09667e-11
8.88062e-11
8.51068e-11
8.57118e-11
7.83714e-11
8.78864e-11
7.04131e-11
1.08401e-10
8.28851e-11
293.134
437.25
310.925
189.821
106.399
54.3295
24.6555
9.36911
2.60492
0.386189
0.0342682
0.0107358
0.00223466
9.28845e-09
7.09251e-07
4.67059e-05
3.53375e-05
2.19206e-05
1.68435e-05
1.3041e-05
9.82257e-06
7.35797e-06
5.49337e-06
4.07764e-06
3.00996e-06
2.20839e-06
1.6112e-06
1.16659e-06
8.38426e-07
5.97439e-07
4.22435e-07
2.9603e-07
2.05786e-07
1.41823e-07
9.6877e-08
6.55702e-08
4.39204e-08
2.90739e-08
1.89996e-08
1.22209e-08
7.72236e-09
4.78637e-09
2.89361e-09
1.70259e-09
9.73987e-10
5.38913e-10
2.94618e-10
1.65477e-10
1.03764e-10
8.02452e-11
7.81936e-11
8.40216e-11
9.32681e-11
1.01742e-10
1.08085e-10
1.12808e-10
1.14394e-10
1.14583e-10
1.12931e-10
1.10545e-10
1.07321e-10
1.03933e-10
1.00431e-10
9.69619e-11
9.38803e-11
9.07062e-11
8.86543e-11
8.48644e-11
8.5744e-11
7.79243e-11
8.8343e-11
6.9148e-11
1.09394e-10
8.21713e-11
99.5081
304.209
320.668
239.587
155.026
90.9749
48.4436
22.8122
8.93315
2.5458
0.391907
0.0342458
0.00876686
0.00204083
1.46924e-09
8.21435e-09
3.10167e-05
2.92608e-05
1.74928e-05
1.28436e-05
9.96405e-06
7.49321e-06
5.57039e-06
4.13315e-06
3.05291e-06
2.23995e-06
1.63319e-06
1.18262e-06
8.49923e-07
6.05666e-07
4.28065e-07
2.9999e-07
2.08492e-07
1.43721e-07
9.82107e-08
6.65136e-08
4.45995e-08
2.9566e-08
1.93558e-08
1.24839e-08
7.91105e-09
4.92343e-09
2.99226e-09
1.77294e-09
1.02283e-09
5.72419e-10
3.17447e-10
1.79131e-10
1.11804e-10
8.47549e-11
7.9734e-11
8.40336e-11
9.22324e-11
1.00247e-10
1.06494e-10
1.10863e-10
1.12778e-10
1.13063e-10
1.11682e-10
1.09474e-10
1.06475e-10
1.03259e-10
9.99301e-11
9.65752e-11
9.36348e-11
9.04653e-11
8.86247e-11
8.4713e-11
8.58336e-11
7.756e-11
8.88026e-11
6.80496e-11
1.10062e-10
8.1552e-11
37.984
175.657
261.77
246.952
188.772
127.675
78.4128
43.5672
21.3101
8.6402
2.56129
0.423322
0.0369548
0.0078533
0.00205894
1.27878e-11
1.08533e-07
1.58186e-05
2.43234e-05
1.42173e-05
9.75469e-06
7.54337e-06
5.70816e-06
4.21433e-06
3.10164e-06
2.27761e-06
1.66152e-06
1.20277e-06
8.63951e-07
6.15549e-07
4.34876e-07
3.04689e-07
2.11676e-07
1.45895e-07
9.97095e-08
6.75542e-08
4.53344e-08
3.00908e-08
1.97315e-08
1.27554e-08
8.10659e-09
5.06377e-09
3.09269e-09
1.84456e-09
1.07269e-09
6.07076e-10
3.40945e-10
1.93996e-10
1.2099e-10
9.02682e-11
8.23313e-11
8.50059e-11
9.20969e-11
9.95539e-11
1.0559e-10
1.0965e-10
1.11738e-10
1.12066e-10
1.10885e-10
1.08791e-10
1.05972e-10
1.02858e-10
9.96597e-11
9.6387e-11
9.35371e-11
9.03689e-11
8.86519e-11
8.46238e-11
8.59528e-11
7.72141e-11
8.9231e-11
6.6948e-11
1.10698e-10
8.09428e-11
18.2978
95.6824
183.302
215.526
196.027
153.372
107.932
69.1688
40.0596
20.4036
8.64035
2.71474
0.499868
0.04607
0.0076732
0.00224248
0
4.95188e-08
7.02847e-06
1.87644e-05
1.22844e-05
7.52889e-06
5.62343e-06
4.31949e-06
3.19364e-06
2.32393e-06
1.68983e-06
1.2246e-06
8.80142e-07
6.26783e-07
4.42478e-07
3.09859e-07
2.15178e-07
1.48253e-07
1.01308e-07
6.86489e-08
4.60979e-08
3.06313e-08
2.01176e-08
1.30311e-08
8.305e-09
5.20586e-09
3.19414e-09
1.91685e-09
1.12345e-09
6.42521e-10
3.64995e-10
2.09976e-10
1.31249e-10
9.66357e-11
8.58863e-11
8.6828e-11
9.27544e-11
9.95499e-11
1.05242e-10
1.09067e-10
1.11172e-10
1.11497e-10
1.10439e-10
1.08408e-10
1.05721e-10
1.02654e-10
9.9543e-11
9.63277e-11
9.35186e-11
9.03591e-11
8.86828e-11
8.45406e-11
8.6051e-11
7.6848e-11
8.95833e-11
6.58058e-11
1.11281e-10
8.03202e-11
10.7102
51.926
116.474
164.759
176.763
159.754
128.315
93.7285
62.5629
37.7951
20.1395
9.00003
3.05642
0.648843
0.0688136
0.0083182
0.0027444
9.23835e-07
1.68789e-08
7.06996e-07
1.11418e-05
1.08558e-05
6.18016e-06
4.11374e-06
3.16286e-06
2.39574e-06
1.74254e-06
1.25056e-06
8.9593e-07
6.38646e-07
4.51072e-07
3.15626e-07
2.18963e-07
1.50758e-07
1.02994e-07
6.97969e-08
4.68891e-08
3.11852e-08
2.05106e-08
1.33119e-08
8.50638e-09
5.3499e-09
3.29692e-09
1.99005e-09
1.17512e-09
6.78674e-10
3.89758e-10
2.26694e-10
1.42247e-10
1.03578e-10
9.00613e-11
8.91738e-11
9.38852e-11
9.99406e-11
1.05195e-10
1.08801e-10
1.10829e-10
1.11125e-10
1.10125e-10
1.08137e-10
1.05527e-10
1.02506e-10
9.9447e-11
9.62647e-11
9.34813e-11
9.03112e-11
8.86618e-11
8.44002e-11
8.60696e-11
7.64236e-11
8.9809e-11
6.4629e-11
1.11698e-10
7.96897e-11
7.50965
28.7039
69.8343
113.687
141.039
146.004
133.105
109.929
83.2668
57.886
36.56
20.4955
9.76579
3.64632
0.913264
0.121855
0.0120712
0.000256863
0.000273888
8.62508e-10
3.40146e-08
2.87362e-06
8.89804e-06
5.94638e-06
3.31245e-06
2.26975e-06
1.73329e-06
1.29091e-06
9.24573e-07
6.52814e-07
4.59482e-07
3.21754e-07
2.23316e-07
1.53607e-07
1.04813e-07
7.09931e-08
4.7707e-08
3.1759e-08
2.0916e-08
1.36e-08
8.71195e-09
5.49653e-09
3.40161e-09
2.06476e-09
1.22802e-09
7.15898e-10
4.15549e-10
2.44292e-10
1.54035e-10
1.11224e-10
9.48634e-11
9.20558e-11
9.54687e-11
1.00707e-10
1.05448e-10
1.08778e-10
1.1066e-10
1.10889e-10
1.09891e-10
1.07921e-10
1.0534e-10
1.02358e-10
9.93238e-11
9.61512e-11
9.33855e-11
9.01822e-11
8.85607e-11
8.41775e-11
8.598e-11
7.59244e-11
8.9881e-11
6.34263e-11
1.11908e-10
7.9043e-11
6.06129
16.3173
40.4669
72.558
101.437
118.542
121.562
112.609
95.7522
75.2274
54.5284
36.1112
21.415
10.9745
4.5574
1.36053
0.242072
0.0238817
0.00168842
0.000838577
1.04146e-09
4.73496e-09
1.23757e-08
2.93608e-06
5.14223e-06
3.14975e-06
1.78858e-06
1.23091e-06
9.23669e-07
6.75503e-07
4.75306e-07
3.29237e-07
2.27342e-07
1.56438e-07
1.06867e-07
7.23714e-08
4.85967e-08
3.23506e-08
2.13286e-08
1.38959e-08
8.92498e-09
5.64807e-09
3.50933e-09
2.14167e-09
1.28272e-09
7.54793e-10
4.42781e-10
2.63193e-10
1.66902e-10
1.19854e-10
1.00481e-10
9.56366e-11
9.76201e-11
1.01946e-10
1.06082e-10
1.09049e-10
1.10711e-10
1.10814e-10
1.09767e-10
1.0777e-10
1.05187e-10
1.0221e-10
9.91776e-11
9.59929e-11
9.32275e-11
8.99809e-11
8.83728e-11
8.38723e-11
8.57765e-11
7.53517e-11
8.97878e-11
6.22042e-11
1.11916e-10
7.83565e-11
5.12917
9.57085
22.8459
43.5064
66.7601
86.5286
98.6088
101.498
95.9633
84.1293
68.6195
51.943
36.1724
22.794
12.6366
5.86794
2.09247
0.497147
0.0655563
0.00566386
2.25716e-06
0.000162355
1.14007e-11
5.91889e-09
1.11838e-07
2.16057e-06
2.74919e-06
1.65023e-06
9.46182e-07
6.42794e-07
4.73982e-07
3.41849e-07
2.36671e-07
1.60653e-07
1.08724e-07
7.3545e-08
4.95032e-08
3.30178e-08
2.17847e-08
1.42043e-08
9.14124e-09
5.80318e-09
3.62149e-09
2.22241e-09
1.34023e-09
7.95896e-10
4.71826e-10
2.8373e-10
1.81158e-10
1.29665e-10
1.07075e-10
1.00024e-10
1.00432e-10
1.03713e-10
1.07138e-10
1.09642e-10
1.11007e-10
1.10914e-10
1.09762e-10
1.0769e-10
1.05072e-10
1.02062e-10
9.90075e-11
9.57928e-11
9.30063e-11
8.97112e-11
8.8095e-11
8.34853e-11
8.54575e-11
7.47124e-11
8.95231e-11
6.0971e-11
1.11725e-10
7.76058e-11
4.03725
5.61744
12.3804
24.4779
40.4586
57.2189
71.5395
80.9712
84.3198
81.6306
73.8983
62.6501
49.6021
36.4051
24.4476
14.7027
7.6393
3.22714
1.00013
0.195492
0.0220986
0.00135278
0.000597329
1.89914e-05