/*--------------------------------*- C++ -*----------------------------------*\
| =========                 |                                                 |
| \\      /  F ield         | OpenFOAM: The Open Source CFD Toolbox           |
|  \\    /   O peration     | Version:  2312                                  |
|   \\  /    A nd           | Website:  www.openfoam.com                      |
|    \\/     M anipulation  |                                                 |
\*---------------------------------------------------------------------------*/
FoamFile
{
    version     2.0;
    format      ascii;
    arch        "LSB;label=32;scalar=64";
    class       volSymmTensorField;
    location    "950";
    object      turbulenceProperties:devReff;
}
// * * * * * * * * * * * * * * * * * * * * * * * * * * * * * * * * * * * * * //

dimensions      [0 2 -2 0 0 0 0];

internalField   nonuniform List<symmTensor> 
11040
(
(0.0180258 0.0949615 -1.69668e-22 -0.0279813 1.166e-20 0.00995551)
(0.0672104 0.0877816 9.64509e-21 -0.0800856 1.35552e-19 0.0128751)
(0.0123745 0.00977809 -2.96752e-20 -0.0108748 9.21987e-20 -0.00149972)
(-0.00496611 0.0107216 -7.05392e-20 0.00541646 4.00148e-20 -0.000450341)
(-0.0689141 0.0484411 -2.2304e-20 0.0691427 2.00031e-19 -0.000228686)
(-0.0626197 0.059666 -3.06138e-19 0.063323 1.11505e-19 -0.000703363)
(-0.0529802 0.0626098 1.75677e-19 0.0532388 -1.15434e-18 -0.00025854)
(-0.0432152 0.0609383 2.44725e-19 0.043348 -1.69674e-19 -0.000132716)
(-0.034395 0.0575085 1.05205e-19 0.0344782 -3.05205e-20 -8.32479e-05)
(-0.0281576 0.0554165 9.8105e-20 0.0281443 1.55885e-19 1.32727e-05)
(-0.0229882 0.0527769 -8.70902e-20 0.0229874 3.71388e-19 7.92901e-07)
(-0.0186385 0.0502252 -1.30381e-19 0.0186082 2.79605e-19 3.0263e-05)
(-0.0149945 0.0479756 2.17217e-20 0.0149326 -1.60856e-19 6.19602e-05)
(-0.011994 0.0461787 2.71474e-20 0.0119326 1.57447e-19 6.14159e-05)
(-0.00936423 0.0446714 -1.22253e-20 0.00927825 1.19776e-20 8.59798e-05)
(-0.00715613 0.0440088 -4.68416e-21 0.00706176 -2.03731e-19 9.43672e-05)
(-0.00519173 0.0441998 5.62734e-20 0.00508146 -8.10444e-22 0.000110274)
(-0.00334365 0.0453195 -5.50165e-21 0.00321721 3.70044e-19 0.000126443)
(-0.00148053 0.0472245 -3.18759e-20 0.00133898 3.2343e-21 0.000141552)
(0.00050481 0.049881 5.15727e-21 -0.000666174 -5.37943e-20 0.000161365)
(0.00271759 0.0533737 2.43704e-20 -0.00288842 4.11537e-20 0.000170836)
(0.0050245 0.0575982 -2.66926e-20 -0.00519669 1.24391e-19 0.000172186)
(0.00727157 0.0625706 1.03742e-21 -0.00745749 -1.02417e-19 0.00018592)
(0.00967331 0.0683508 1.36834e-20 -0.00987064 2.63185e-19 0.000197332)
(0.0123452 0.0749419 -7.98609e-20 -0.0125375 -2.36806e-19 0.000192364)
(0.0153467 0.0826412 -4.2659e-20 -0.0155212 -5.53225e-19 0.000174495)
(0.0186589 0.0911869 1.15645e-20 -0.0188025 -2.57617e-19 0.000143688)
(0.0220078 0.0993142 3.44787e-20 -0.022105 7.3568e-20 9.72107e-05)
(0.0251638 0.106284 -2.33459e-20 -0.0251952 -2.10526e-19 3.13533e-05)
(0.0278123 0.111261 1.43657e-20 -0.0277633 -4.91594e-19 -4.89368e-05)
(0.0296151 0.113376 1.25034e-19 -0.0294859 3.53918e-19 -0.000129165)
(0.0303423 0.111879 2.14966e-20 -0.0301345 -2.79824e-20 -0.000207754)
(0.0299515 0.107087 1.09216e-19 -0.0296638 9.94491e-19 -0.000287728)
(0.0286899 0.100626 -9.35667e-20 -0.0283065 6.09489e-19 -0.000383456)
(0.0271435 0.0951911 4.832e-20 -0.0265801 1.01958e-20 -0.000563419)
(0.0205781 0.0749397 1.33011e-19 -0.0198957 9.44456e-19 -0.000682378)
(0.00945843 0.0392047 8.42089e-21 -0.00891265 1.80128e-19 -0.000545775)
(0.00338762 0.0245926 -3.9941e-20 -0.0025589 5.52373e-19 -0.000828716)
(-0.00584385 0.0084207 -4.49051e-19 0.0062556 -1.16308e-18 -0.000411752)
(-0.016421 -0.029801 2.10384e-21 0.0177591 -9.70083e-19 -0.00133803)
(-0.0598326 -0.0209427 2.0326e-19 0.0666886 5.48362e-20 -0.00685605)
(0.005773 -0.0059714 5.87479e-22 -0.00414185 -1.72099e-21 -0.00163115)
(0.0169193 0.00177168 2.61772e-20 -0.0101798 5.15192e-21 -0.00673944)
(0.0523654 0.0322476 5.72462e-20 -0.0539125 -3.02281e-19 0.00154716)
(0.123383 0.0326124 7.84251e-20 -0.124122 -1.77903e-19 0.000738864)
(0.247293 -0.0212057 8.3002e-20 -0.246868 -4.94679e-19 -0.000425226)
(0.06711 -0.0489486 5.67715e-19 -0.0666111 -1.20562e-18 -0.000498851)
(0.0177738 -0.0190659 -8.28099e-19 -0.0168726 3.24543e-18 -0.000901142)
(0.00430921 -0.0076716 -8.33056e-19 -0.00450087 2.15069e-18 0.000191652)
(0.000294754 -0.00225395 -7.53116e-20 -0.000415245 -1.54123e-19 0.00012049)
(-0.00127797 0.0012846 -1.04071e-19 0.00116192 4.04832e-20 0.000116048)
(-0.00222787 0.0036002 4.61982e-19 0.00224663 -1.16206e-18 -1.87609e-05)
(-0.00246873 0.00504149 -1.66687e-21 0.00257103 -7.46638e-20 -0.0001023)
(-0.00230447 0.00612529 -1.67112e-19 0.00240478 6.8439e-19 -0.000100311)
(-0.00210304 0.00688398 -1.13567e-19 0.00225936 3.32939e-20 -0.000156322)
(-0.00174667 0.00742981 -4.48548e-20 0.00191553 -1.72795e-19 -0.00016886)
(-0.0013743 0.00792945 1.06889e-20 0.00156872 5.92265e-19 -0.000194413)
(-0.000993998 0.00850686 -1.46742e-20 0.00121309 1.98011e-19 -0.000219088)
(-0.00058603 0.00916559 -9.12582e-21 0.000828618 -5.53865e-19 -0.000242588)
(-0.000141753 0.00981863 -2.37768e-20 0.000412987 -2.56307e-20 -0.000271234)
(0.000359029 0.0104644 -7.41955e-21 -6.95981e-05 8.26898e-20 -0.00028943)
(0.000922546 0.0111158 -1.10134e-20 -0.000622614 -1.53141e-20 -0.000299933)
(0.00152186 0.0118013 3.12689e-20 -0.00121349 -2.77667e-19 -0.000308367)
(0.00206203 0.0123338 2.39366e-20 -0.00173585 3.90608e-19 -0.000326175)
(0.00250649 0.0125058 -4.69063e-20 -0.00217736 -3.56106e-19 -0.000329132)
(0.00281296 0.0122643 -6.5251e-21 -0.00250607 2.88783e-19 -0.000306889)
(0.00300248 0.0118534 7.51138e-20 -0.00273578 9.32216e-19 -0.000266697)
(0.0030839 0.0113924 1.404e-19 -0.00287116 5.14976e-19 -0.000212738)
(0.0029394 0.0106101 -3.44392e-20 -0.00280938 1.43348e-19 -0.000130027)
(0.00252352 0.00953573 -9.23468e-20 -0.00251424 2.85261e-19 -9.27789e-06)
(0.00184273 0.00834665 4.48747e-20 -0.00198643 5.07586e-19 0.000143701)
(0.000962244 0.00741488 -1.1218e-19 -0.00126716 -7.75358e-19 0.000304911)
(-0.000179149 0.00720059 -5.69562e-20 -0.00030254 -1.2634e-18 0.000481689)
(-0.00189565 0.00706397 -1.31782e-19 0.00120642 -2.64234e-18 0.000689236)
(-0.00415352 0.00717619 6.94999e-20 0.00324073 -1.31326e-18 0.000912793)
(-0.00700728 0.00757799 -9.38428e-20 0.0057714 1.23418e-19 0.00123588)
(-0.0105246 0.008342 -4.44607e-19 0.00877094 -4.0229e-18 0.00175364)
(-0.0147123 0.00996532 -6.7657e-20 0.0124438 -3.47653e-19 0.00226848)
(-0.0194148 0.0126042 -5.16716e-19 0.0176542 -2.42805e-18 0.00176052)
(-0.0336959 0.0158705 1.25051e-18 0.0299574 5.41104e-18 0.00373846)
(-0.0262645 0.0302417 8.09371e-19 0.0290255 4.80629e-18 -0.00276091)
(-0.121602 -0.113041 -4.05207e-19 0.0745407 -6.69024e-19 0.0470614)
(0.00213388 -0.00416357 -5.29e-22 -0.00239938 -7.60631e-22 0.000265492)
(-0.000392982 -0.00399004 -1.02218e-20 0.000539189 -2.61703e-20 -0.000146207)
(0.00865719 0.00476386 2.08289e-20 -0.00813797 1.03427e-19 -0.000519225)
(0.0440124 0.0189653 6.08197e-20 -0.0447412 9.40843e-20 0.000728736)
(0.28377 0.0491081 -7.60637e-21 -0.286048 -3.81524e-20 0.00227776)
(0.383901 -0.0350682 -3.05844e-19 -0.382346 1.19903e-18 -0.00155516)
(0.173962 -0.0979081 2.56451e-20 -0.173224 9.62534e-21 -0.000738231)
(0.0542662 -0.0540779 9.53411e-20 -0.0506529 -2.46919e-18 -0.00361322)
(0.0214829 -0.0285513 -1.68669e-19 -0.0210273 2.57709e-20 -0.000455593)
(0.0118472 -0.0176178 2.41249e-19 -0.0120772 -7.04838e-19 0.000229989)
(0.00587388 -0.0104445 -4.44481e-19 -0.00597507 1.04882e-18 0.000101189)
(0.00283527 -0.00624706 7.73106e-19 -0.0028214 -2.10563e-18 -1.38765e-05)
(0.00146861 -0.00295919 -3.98661e-20 -0.00153308 -6.99945e-20 6.44676e-05)
(0.000643643 -0.000711987 1.56375e-19 -0.000653 -9.23953e-19 9.35644e-06)
(0.000425099 0.000896674 2.48812e-20 -0.000472028 9.66573e-19 4.69287e-05)
(0.000418357 0.00207356 -8.0132e-20 -0.000457746 -3.69495e-19 3.93892e-05)
(0.000573542 0.00286739 -3.46292e-21 -0.000613262 -6.22568e-19 3.97201e-05)
(0.00082319 0.00342812 4.25817e-20 -0.000864287 -4.45246e-19 4.10966e-05)
(0.00110704 0.00380967 1.98891e-20 -0.00113845 -2.52719e-20 3.14033e-05)
(0.00142869 0.00402383 2.64512e-20 -0.0014583 2.81443e-20 2.96088e-05)
(0.00176512 0.00410601 2.78106e-21 -0.00178823 8.53353e-20 2.31186e-05)
(0.00213314 0.00403479 -4.50598e-20 -0.00216137 1.35838e-19 2.82345e-05)
(0.00246935 0.00369499 -3.79223e-20 -0.00249918 -4.48206e-19 2.98249e-05)
(0.00269702 0.00304527 -4.02569e-20 -0.00272303 -1.79914e-19 2.60041e-05)
(0.00275287 0.00219039 8.41813e-20 -0.00276754 -2.8281e-19 1.46652e-05)
(0.00261 0.00127807 -1.46987e-20 -0.00261004 -2.64194e-19 4.04586e-08)
(0.00223089 0.000448464 -2.30036e-19 -0.00220991 2.68775e-19 -2.09744e-05)
(0.00154936 -0.000166602 -7.91832e-20 -0.00149814 -1.08579e-18 -5.12178e-05)
(0.000502975 -0.000384032 1.93892e-19 -0.000412623 2.68037e-19 -9.03519e-05)
(-0.000986461 -8.79056e-05 2.64531e-19 0.00111517 1.12568e-18 -0.000128706)
(-0.00310505 0.000589162 -1.86964e-19 0.00325956 6.33054e-19 -0.000154508)
(-0.0062196 0.00125991 4.34546e-19 0.00639233 2.61512e-18 -0.00017273)
(-0.0103247 0.00265946 1.83001e-19 0.0105054 8.10464e-19 -0.000180678)
(-0.0154518 0.0049286 -3.99288e-19 0.0156097 9.07718e-19 -0.000157848)
(-0.0217234 0.00822584 -4.81761e-19 0.0218058 -9.56575e-19 -8.24141e-05)
(-0.0294695 0.0128719 3.25274e-19 0.0293037 2.00705e-18 0.00016574)
(-0.038735 0.0196183 2.9658e-19 0.0381649 -2.11066e-18 0.000570055)
(-0.047839 0.0285273 5.41629e-19 0.0480396 1.92459e-18 -0.000200576)
(-0.0751393 0.0388796 -4.32325e-19 0.071402 -9.55903e-19 0.00373731)
(-0.0646949 0.0845291 2.5089e-20 0.0704416 -5.00894e-19 -0.00574665)
(-0.15846 0.00610734 4.53994e-19 0.156946 1.69255e-18 0.00151395)
(0.00198014 -0.00264593 -1.51282e-22 -0.00208181 -7.13564e-22 0.000101669)
(-0.00027262 -0.00294169 -3.9361e-22 8.31948e-05 2.8411e-21 0.000189425)
(-0.00085701 -0.00211834 -1.49499e-20 0.000838539 -3.43267e-20 1.8471e-05)
(0.00327395 0.00147265 -2.00174e-20 -0.00317443 -3.92776e-20 -9.95159e-05)
(0.0644414 0.0213079 3.97809e-20 -0.0649563 4.71864e-20 0.000514901)
(0.328655 0.0434471 2.44542e-19 -0.332396 8.5956e-21 0.00374099)
(0.493803 -0.0449859 2.5799e-19 -0.491928 -1.39912e-18 -0.00187466)
(0.300277 -0.13775 9.06496e-19 -0.304453 -1.41822e-18 0.00417589)
(0.104367 -0.0946467 -4.12055e-19 -0.0983231 1.22972e-18 -0.00604422)
(0.0481924 -0.0577405 2.32475e-19 -0.0466836 4.0089e-19 -0.00150882)
(0.0260369 -0.0359699 -3.54426e-19 -0.0259911 1.12764e-18 -4.58019e-05)
(0.0151929 -0.0257089 -5.82845e-19 -0.0152295 1.26732e-18 3.65716e-05)
(0.00964889 -0.0186484 4.67584e-19 -0.00974822 -9.56893e-19 9.93262e-05)
(0.00612275 -0.0136697 -1.18229e-19 -0.00605679 9.422e-19 -6.59541e-05)
(0.00435117 -0.0102684 -2.01235e-19 -0.00433183 -1.06288e-18 -1.93379e-05)
(0.00334886 -0.00777583 -1.13036e-19 -0.0033192 -4.5928e-19 -2.96578e-05)
(0.00286221 -0.0061802 5.38735e-20 -0.00283815 2.26722e-19 -2.40647e-05)
(0.0026771 -0.0050748 1.15537e-19 -0.00266876 1.32569e-20 -8.33945e-06)
(0.00261677 -0.00443422 3.13698e-20 -0.0026058 5.39172e-20 -1.09736e-05)
(0.0026559 -0.00416355 -1.22412e-20 -0.00265897 -7.76347e-20 3.06312e-06)
(0.00271139 -0.00418648 -2.75366e-20 -0.00271087 -1.97725e-19 -5.21689e-07)
(0.00284282 -0.00445002 2.67924e-20 -0.00284317 -2.81663e-19 3.49889e-07)
(0.003038 -0.00500812 2.33128e-20 -0.00304307 -1.27608e-19 5.06562e-06)
(0.00317712 -0.00586375 8.79531e-21 -0.0031886 1.18446e-19 1.14829e-05)
(0.00315359 -0.0068322 -6.89197e-20 -0.00316398 7.12658e-19 1.03857e-05)
(0.00290386 -0.00773382 2.54147e-19 -0.00291322 -8.12868e-19 9.36833e-06)
(0.00232877 -0.00843142 1.81798e-19 -0.00233918 -6.25989e-19 1.04051e-05)
(0.00127936 -0.00879432 2.00228e-19 -0.0012928 1.53055e-18 1.34466e-05)
(-0.000433543 -0.00868605 -6.362e-20 0.00041741 4.07832e-19 1.61329e-05)
(-0.00304475 -0.00800767 -5.59886e-19 0.00302512 -5.97434e-19 1.96282e-05)
(-0.00683553 -0.00667262 1.78625e-19 0.00681145 -1.08124e-18 2.40773e-05)
(-0.0120818 -0.00446818 -4.50453e-19 0.0120534 6.57844e-19 2.84164e-05)
(-0.0189372 -0.000893111 3.97355e-19 0.018901 -5.57939e-19 3.61811e-05)
(-0.0275563 0.00433874 4.52151e-19 0.0275229 -1.41981e-18 3.33489e-05)
(-0.0381324 0.0115263 4.45494e-19 0.0381259 8.27818e-19 6.52919e-06)
(-0.0512694 0.0211355 4.78096e-19 0.0511767 1.79292e-18 9.27488e-05)
(-0.0671246 0.0344594 3.89627e-19 0.0667937 1.88583e-18 0.000330952)
(-0.0821575 0.0525836 -5.81815e-19 0.0833842 -2.35243e-18 -0.00122676)
(-0.121333 0.0715311 2.88954e-20 0.117262 -8.16128e-19 0.00407074)
(-0.111167 0.152388 -1.99009e-19 0.119189 -1.69039e-18 -0.00802119)
(-0.149446 0.0875711 -4.8485e-19 0.145229 -8.12211e-19 0.00421757)
(0.00155567 -0.0019629 1.39014e-21 -0.00154565 3.3441e-21 -1.00258e-05)
(0.000436792 -0.00224173 -2.26927e-21 -0.000383025 -4.4935e-21 -5.37672e-05)
(-0.000689929 -0.00229104 1.15255e-20 0.000694604 2.34236e-20 -4.67453e-06)
(-0.000530755 -0.00110176 1.4643e-20 0.000550171 2.57532e-20 -1.94156e-05)
(0.00161763 0.0004812 -1.49135e-20 -0.00157694 -2.21745e-20 -4.0697e-05)
(0.0594303 0.0155338 3.46622e-20 -0.0595905 -1.13794e-20 0.000160204)
(0.313107 0.0306346 -7.36999e-20 -0.316642 -8.9912e-21 0.00353499)
(0.557474 -0.0473517 -2.54248e-19 -0.555335 3.18939e-19 -0.00213898)
(0.446218 -0.168241 4.05098e-19 -0.45255 -1.81868e-19 0.00633218)
(0.188395 -0.152521 9.73976e-21 -0.185236 1.79208e-19 -0.00315975)
(0.0857104 -0.0963038 3.62825e-19 -0.0810815 -2.35294e-18 -0.00462892)
(0.0462239 -0.0620472 -2.58437e-19 -0.0456446 3.99027e-19 -0.000579285)
(0.0284584 -0.0451161 -2.92293e-19 -0.0288501 2.33556e-19 0.000391679)
(0.0180886 -0.0341308 3.38223e-19 -0.0181753 -2.33112e-18 8.66999e-05)
(0.0122853 -0.0273946 2.68383e-19 -0.012306 1.33592e-19 2.07797e-05)
(0.00887099 -0.0222549 1.6959e-19 -0.00884982 1.78388e-19 -2.1172e-05)
(0.00688965 -0.019042 -1.57774e-19 -0.00685662 6.32457e-19 -3.30252e-05)
(0.00577177 -0.0168194 -1.03813e-20 -0.00576162 1.38817e-19 -1.01439e-05)
(0.0050387 -0.0155266 3.70714e-20 -0.00501475 -6.74244e-20 -2.39538e-05)
(0.00459867 -0.0149145 4.79098e-20 -0.00459319 5.00939e-20 -5.47884e-06)
(0.00426146 -0.0147504 -1.01809e-20 -0.0042472 2.32903e-19 -1.42696e-05)
(0.00412962 -0.014889 -8.99824e-20 -0.00411466 2.30606e-19 -1.49617e-05)
(0.00420669 -0.0153585 1.23546e-19 -0.00419 1.76547e-19 -1.66845e-05)
(0.00431591 -0.0161806 1.52301e-19 -0.0043055 4.04434e-19 -1.04015e-05)
(0.00428146 -0.0171478 -1.79492e-19 -0.00427343 -9.90231e-20 -8.0322e-06)
(0.00396192 -0.0180711 -1.34502e-19 -0.00395684 2.05539e-18 -5.08275e-06)
(0.00316522 -0.0187744 8.30544e-20 -0.003163 -3.15983e-20 -2.22341e-06)
(0.00163639 -0.0190545 -2.97401e-19 -0.00163829 -8.37113e-19 1.90412e-06)
(-0.000936929 -0.0186833 -5.06222e-19 0.000930143 -1.61555e-18 6.78627e-06)
(-0.00490573 -0.0174002 3.67369e-19 0.00489175 -6.65258e-19 1.3982e-05)
(-0.0106347 -0.0148757 1.22814e-19 0.0106143 1.76809e-18 2.04351e-05)
(-0.0184608 -0.0106809 2.64368e-19 0.0184341 -1.06984e-18 2.66275e-05)
(-0.0286743 -0.00429717 -2.33467e-19 0.0286332 2.97596e-18 4.11309e-05)
(-0.0415059 0.00477099 -9.01844e-19 0.0414625 1.46464e-19 4.34328e-05)
(-0.0571704 0.0170186 -3.36532e-19 0.0571643 6.22536e-19 6.07034e-06)
(-0.07642 0.0331124 -4.57677e-19 0.0762985 7.4442e-19 0.000121556)
(-0.0993825 0.055008 -6.76291e-20 0.0989384 -3.61974e-20 0.000444058)
(-0.120693 0.0855424 2.24529e-20 0.122393 7.37914e-20 -0.0016999)
(-0.166533 0.115241 -3.25362e-20 0.161505 1.63004e-18 0.00502795)
(-0.163377 0.224621 -3.8187e-20 0.173626 -1.11896e-18 -0.0102484)
(-0.151091 0.173088 6.37821e-19 0.144499 -7.48343e-19 0.0065916)
(0.00118628 -0.00136251 -1.38754e-21 -0.00119568 -2.35946e-21 9.40413e-06)
(0.000456133 -0.00159626 7.09395e-21 -0.000440483 1.1586e-20 -1.56496e-05)
(-0.000184432 -0.00161413 -3.60111e-21 0.000194294 -7.85753e-21 -9.86158e-06)
(-0.000786447 -0.00158917 -3.29786e-21 0.000778099 -8.80942e-21 8.34746e-06)
(-0.000409558 -0.000651498 2.06496e-21 0.000412929 4.97329e-21 -3.37028e-06)
(0.000709782 8.46666e-05 -1.84513e-21 -0.000688811 -1.82604e-21 -2.09709e-05)
(0.0407829 0.00811798 -2.4806e-20 -0.0406946 -2.55059e-20 -8.83032e-05)
(0.2516 0.0182881 -8.06347e-20 -0.253652 9.96594e-20 0.00205231)
(0.564832 -0.0454546 -1.69439e-19 -0.564887 -1.63225e-19 5.52241e-05)
(0.582736 -0.179663 -3.696e-19 -0.586199 -9.68649e-19 0.00346306)
(0.326068 -0.221891 3.75723e-19 -0.332093 5.63635e-19 0.00602461)
(0.142212 -0.148146 6.04001e-19 -0.134285 -8.30856e-19 -0.00792742)
(0.0763826 -0.101045 -8.07696e-19 -0.0737178 6.21753e-19 -0.00266488)
(0.0466644 -0.0707707 3.5245e-19 -0.0466375 1.08212e-18 -2.69764e-05)
(0.0297986 -0.055252 1.8562e-20 -0.0301615 4.77685e-19 0.000362891)
(0.0201811 -0.0443441 -2.28216e-19 -0.0203321 -8.58846e-20 0.000151)
(0.0144515 -0.0377491 1.60431e-19 -0.0144113 -8.97326e-19 -4.02335e-05)
(0.0111665 -0.033181 -3.41883e-20 -0.0111566 5.83767e-19 -9.88678e-06)
(0.00901393 -0.0303643 7.05111e-20 -0.00897828 -1.11021e-19 -3.56481e-05)
(0.00769783 -0.028869 4.68516e-20 -0.00770132 2.03434e-19 3.49531e-06)
(0.00675808 -0.0281836 -6.30836e-20 -0.00674688 -2.93406e-19 -1.12056e-05)
(0.00629308 -0.0280117 2.99066e-20 -0.00628868 1.19094e-20 -4.40357e-06)
(0.00625048 -0.0283201 1.41442e-20 -0.00624153 1.01764e-19 -8.94708e-06)
(0.00635873 -0.0291451 -2.96658e-19 -0.00635418 -3.41738e-19 -4.54961e-06)
(0.00635342 -0.030226 3.22731e-19 -0.006348 -8.04371e-19 -5.42499e-06)
(0.00599866 -0.0313255 4.47247e-20 -0.00599305 -4.31241e-19 -5.61223e-06)
(0.00500122 -0.0321774 -5.37989e-19 -0.00499593 -4.32183e-19 -5.29222e-06)
(0.00298604 -0.032446 5.27721e-20 -0.00298208 -9.74951e-19 -3.95749e-06)
(-0.000491798 -0.0317358 8.50156e-19 0.000492364 -1.18802e-19 -5.66772e-07)
(-0.00591116 -0.0295921 3.3866e-19 0.00590339 1.4279e-18 7.77007e-06)
(-0.0137531 -0.0254653 -4.13504e-19 0.0137377 -7.79849e-19 1.53538e-05)
(-0.0244638 -0.0187334 -4.96607e-19 0.0244438 6.38612e-19 1.99811e-05)
(-0.0384432 -0.00872165 -2.14633e-19 0.0384051 -3.16656e-18 3.80943e-05)
(-0.055966 0.00532417 7.79221e-19 0.0559231 -1.97258e-18 4.28399e-05)
(-0.077195 0.0241524 6.26754e-19 0.0771981 -1.79804e-18 -3.15863e-06)
(-0.102843 0.0486355 -1.34118e-19 0.10269 -6.43049e-20 0.00015317)
(-0.132726 0.0813844 1.39724e-19 0.132211 1.44887e-18 0.000515312)
(-0.15983 0.126766 4.26894e-20 0.161811 -8.20536e-19 -0.00198171)
(-0.206953 0.170314 -2.43446e-19 0.201378 7.5088e-19 0.0055752)
(-0.214175 0.296346 -5.5235e-19 0.225137 1.78117e-18 -0.0109628)
(-0.166399 0.267548 -5.41769e-19 0.15992 -8.87363e-19 0.00647898)
(0.000917312 -0.000927953 -3.34197e-22 -0.000923085 -6.16076e-22 5.77331e-06)
(0.000456885 -0.00116142 7.76325e-22 -0.000457053 9.15695e-22 1.67684e-07)
(2.99094e-05 -0.00117496 -3.69268e-21 -2.77924e-05 -4.92094e-21 -2.11705e-06)
(-0.000382167 -0.00118149 -5.66514e-21 0.000386165 -7.10423e-21 -3.99801e-06)
(-0.000717092 -0.00108207 -2.02808e-21 0.000713245 -2.369e-21 3.84648e-06)
(-0.000390047 -0.000479501 4.98804e-21 0.000388977 6.90662e-21 1.07012e-06)
(0.000287472 -7.72915e-05 -1.38912e-21 -0.000276502 -2.10253e-21 -1.09704e-05)
(0.0188771 0.00253626 2.01121e-20 -0.0187634 2.21497e-20 -0.000113622)
(0.169638 0.00822668 2.41942e-19 -0.170281 2.33053e-19 0.000643534)
(0.491312 -0.0393534 -1.71558e-19 -0.493439 3.91488e-19 0.00212729)
(0.668999 -0.164615 -2.73878e-19 -0.66713 6.49603e-19 -0.0018694)
(0.503441 -0.273448 2.74138e-19 -0.51373 -1.07116e-18 0.010289)
(0.245665 -0.231336 4.39591e-19 -0.244824 1.32348e-18 -0.000840742)
(0.120849 -0.151897 -7.86107e-19 -0.113125 -2.97359e-19 -0.00772437)
(0.0712972 -0.108177 3.33499e-19 -0.0697763 -1.3446e-18 -0.00152088)
(0.0465807 -0.0825943 -2.22934e-19 -0.0469742 7.70815e-19 0.000393548)
(0.0310356 -0.0675495 1.38283e-19 -0.0313262 7.5629e-19 0.000290661)
(0.0219456 -0.0574551 1.58464e-19 -0.0221054 3.89538e-19 0.000159845)
(0.0162683 -0.0511135 -8.25785e-20 -0.0162151 3.44222e-19 -5.31465e-05)
(0.012954 -0.0475696 9.20296e-21 -0.0129459 -9.96305e-19 -8.02148e-06)
(0.0107907 -0.0457135 2.17076e-20 -0.0107513 4.25141e-19 -3.94092e-05)
(0.00972954 -0.0449565 -1.31151e-19 -0.00971713 -8.40297e-21 -1.24115e-05)
(0.00948637 -0.045057 1.23488e-19 -0.00947312 -4.78792e-19 -1.3252e-05)
(0.0096033 -0.0459882 2.04251e-19 -0.00959989 -7.09298e-20 -3.41714e-06)
(0.00969288 -0.0473538 -1.79143e-19 -0.0096914 1.0353e-18 -1.47714e-06)
(0.00939506 -0.0488123 -3.24161e-19 -0.00939376 -9.09655e-19 -1.29517e-06)
(0.00830524 -0.0499656 4.12576e-19 -0.00830373 -5.42953e-19 -1.51184e-06)
(0.00591947 -0.0502983 2.09403e-19 -0.00591704 1.64147e-18 -2.42803e-06)
(0.00164398 -0.0491912 1.44596e-19 -0.00164323 1.79848e-18 -7.52524e-07)
(-0.00514597 -0.045969 -2.04278e-19 0.00513847 -3.26973e-19 7.50418e-06)
(-0.015065 -0.039834 -2.03392e-20 0.0150486 -1.18726e-18 1.64533e-05)
(-0.0286736 -0.0299217 -4.05603e-19 0.0286539 -3.56955e-19 1.97011e-05)
(-0.0464445 -0.0153208 -1.9265e-19 0.0464046 1.49073e-18 3.98802e-05)
(-0.0686418 0.00500918 9.46102e-20 0.0685971 2.29023e-18 4.46269e-05)
(-0.0952691 0.0320835 1.34641e-18 0.0952759 7.61176e-19 -6.81289e-06)
(-0.126733 0.0669159 2.24293e-19 0.126551 -8.49373e-19 0.000182307)
(-0.162182 0.112501 -1.57082e-18 0.161698 -7.46908e-19 0.000483925)
(-0.193573 0.173518 1.87407e-20 0.195541 -2.11745e-19 -0.00196793)
(-0.237445 0.233263 -1.79706e-20 0.232155 -1.87889e-18 0.00528968)
(-0.25353 0.36496 -1.35282e-19 0.263476 6.01723e-19 -0.00994631)
(-0.186804 0.365769 4.31746e-19 0.183225 1.59614e-18 0.00357935)
(0.000695994 -0.000648661 -6.89836e-23 -0.000701942 -1.36401e-23 5.94842e-06)
(0.000424068 -0.000830771 -1.41775e-21 -0.000423011 -1.9303e-21 -1.05771e-06)
(0.000135439 -0.000908065 1.37338e-21 -0.000133865 1.85678e-21 -1.57418e-06)
(-0.000138382 -0.000872494 6.33981e-21 0.000141771 8.48977e-21 -3.38842e-06)
(-0.000414731 -0.000848886 1.19697e-21 0.000419955 1.66544e-21 -5.22439e-06)
(-0.000634874 -0.000776639 1.07862e-21 0.00063393 5.72768e-22 9.43743e-07)
(-0.000378127 -0.000377422 -7.6422e-21 0.000375364 -8.42663e-21 2.76263e-06)
(1.91747e-05 -0.000160556 -3.46095e-22 -1.4809e-05 -2.36068e-22 -4.36567e-06)
(0.00520109 0.000217363 -1.10628e-20 -0.00514632 -1.59457e-20 -5.4769e-05)
(0.0919408 0.00176691 1.74757e-19 -0.0919139 1.97045e-19 -2.68905e-05)
(0.35477 -0.0281558 -2.80061e-19 -0.356273 -6.89385e-19 0.00150259)
(0.656592 -0.137987 -1.04305e-19 -0.65591 8.54949e-19 -0.000681943)
(0.666139 -0.279845 1.46113e-19 -0.669828 -1.02656e-18 0.00368885)
(0.415186 -0.320744 -3.53039e-19 -0.425551 -3.91823e-19 0.0103654)
(0.20089 -0.234045 9.35804e-19 -0.194921 -2.74866e-19 -0.00596885)
(0.108471 -0.160835 3.83407e-19 -0.102026 8.31373e-19 -0.00644475)
(0.0686453 -0.119696 -3.50517e-19 -0.067784 5.15301e-19 -0.000861274)
(0.046361 -0.0970814 -3.80806e-19 -0.0469958 4.38694e-19 0.00063479)
(0.0319857 -0.083071 -6.12078e-19 -0.0322914 -3.62896e-20 0.000305706)
(0.0232357 -0.0744907 4.78637e-19 -0.0233952 -6.07894e-19 0.000159511)
(0.01785 -0.0696152 1.92976e-19 -0.0177839 8.41678e-19 -6.60843e-05)
(0.015262 -0.0674619 -3.51037e-19 -0.0152177 -2.04939e-19 -4.42332e-05)
(0.014428 -0.0669883 1.23103e-19 -0.0143786 3.53241e-19 -4.94207e-05)
(0.0144569 -0.0679851 9.23506e-20 -0.0144265 2.3435e-19 -3.03669e-05)
(0.0147232 -0.069773 1.74916e-20 -0.0147063 -3.76162e-19 -1.6951e-05)
(0.0146674 -0.0718185 -2.35162e-20 -0.014659 5.2967e-19 -8.48999e-06)
(0.0137402 -0.0735211 3.37603e-19 -0.013742 1.37723e-18 1.73108e-06)
(0.0112937 -0.0741159 3.07892e-19 -0.0113028 -5.45813e-19 9.12567e-06)
(0.00656768 -0.0726533 -4.54347e-19 -0.00658113 3.86384e-20 1.3447e-05)
(-0.00120774 -0.0682121 -9.88507e-19 0.00118773 -1.14438e-18 2.00114e-05)
(-0.0127801 -0.0597006 2.51404e-19 0.0127508 7.26751e-20 2.93388e-05)
(-0.028799 -0.045955 5.66346e-19 0.0287674 -1.05369e-18 3.168e-05)
(-0.0497561 -0.0257887 6.30674e-19 0.0497055 3.29373e-19 5.06208e-05)
(-0.075826 0.00210323 -4.23822e-19 0.0757721 -1.75419e-19 5.3963e-05)
(-0.106725 0.038933 -7.67584e-19 0.106718 1.51991e-18 7.32696e-06)
(-0.142266 0.085705 -6.10436e-19 0.142054 -1.43193e-18 0.000211605)
(-0.180658 0.145228 9.64302e-19 0.180273 -2.18982e-19 0.000385397)
(-0.213631 0.220911 3.1667e-20 0.215255 3.64676e-19 -0.0016244)
(-0.250627 0.297106 2.00851e-19 0.246528 -3.54084e-19 0.00409846)
(-0.269339 0.424502 -1.49394e-19 0.276255 -8.34052e-19 -0.006916)
(-0.200402 0.453631 -4.53935e-19 0.201688 5.40495e-19 -0.00128596)
(0.000530761 -0.000460747 -2.22658e-22 -0.000534901 -7.49538e-23 4.13964e-06)
(0.00035963 -0.00059427 -1.19146e-21 -0.000358999 -1.85594e-21 -6.31347e-07)
(0.000178158 -0.000672701 4.98382e-21 -0.000177813 5.67536e-21 -3.45234e-07)
(-1.43115e-05 -0.000689635 -6.69842e-22 1.42145e-05 -8.5229e-22 9.69316e-08)
(-0.000194338 -0.000635642 1.78038e-21 0.000195999 1.65463e-21 -1.66122e-06)
(-0.000392951 -0.000619531 -1.60646e-21 0.000397333 -1.46272e-21 -4.3815e-06)
(-0.000510213 -0.000523433 3.9137e-21 0.000511377 5.24422e-21 -1.16313e-06)
(-0.000358391 -0.000299818 3.09103e-21 0.000356089 2.5926e-21 2.30123e-06)
(-0.000155358 -0.000194498 5.31252e-23 0.000155632 9.49851e-22 -2.74444e-07)
(0.000390174 -6.41872e-05 4.24709e-21 -0.000384402 3.76708e-21 -5.77211e-06)
(0.0356031 -0.000857011 -5.15071e-21 -0.0354569 5.36907e-21 -0.000146163)
(0.204519 -0.0176346 -3.23279e-19 -0.204843 -2.17611e-19 0.000324743)
(0.522975 -0.0991703 2.00771e-19 -0.524051 -3.96698e-19 0.00107626)
(0.733702 -0.245157 -4.90736e-19 -0.731926 9.29388e-19 -0.00177626)
(0.617541 -0.366421 -2.56204e-19 -0.626856 -9.32227e-19 0.00931487)
(0.351127 -0.346393 5.47455e-19 -0.358631 7.43648e-19 0.00750381)
(0.176207 -0.243598 3.40217e-19 -0.167853 -1.54538e-18 -0.00835369)
(0.101251 -0.174683 1.64632e-19 -0.0955322 5.75314e-19 -0.00571854)
(0.0671124 -0.136343 -7.34468e-19 -0.0666367 -1.12263e-18 -0.000475638)
(0.0460797 -0.115961 2.97608e-19 -0.0468678 1.18888e-18 0.000788094)
(0.0325423 -0.104342 7.4176e-20 -0.032885 -8.74808e-19 0.000342639)
(0.0253782 -0.0986836 -3.27358e-19 -0.0255083 4.29538e-19 0.000130143)
(0.0223827 -0.0965692 2.45601e-19 -0.0223208 5.32355e-21 -6.18629e-05)
(0.0216579 -0.0971842 -4.23398e-20 -0.0215733 2.70764e-20 -8.45796e-05)
(0.0219816 -0.0993291 -8.93707e-20 -0.0219199 7.35864e-19 -6.16953e-05)
(0.02236 -0.102003 1.08762e-19 -0.0223142 -1.75237e-19 -4.57211e-05)
(0.0220073 -0.104337 -7.65298e-19 -0.0219802 6.28222e-21 -2.71387e-05)
(0.0200986 -0.105334 -3.74018e-19 -0.02009 1.906e-19 -8.57275e-06)
(0.0156903 -0.103736 -1.94042e-19 -0.0157036 -1.21839e-18 1.33076e-05)
(0.00784086 -0.0981644 9.47077e-19 -0.00788281 1.01217e-19 4.19504e-05)
(-0.00431452 -0.0871469 1.59562e-19 0.00424315 8.16131e-19 7.1367e-05)
(-0.0214791 -0.0691447 2.9014e-19 0.0213972 9.02182e-19 8.18808e-05)
(-0.0440963 -0.0427002 -6.0098e-19 0.0440062 2.6806e-19 9.00834e-05)
(-0.072151 -0.00636106 4.92748e-19 0.0720658 -1.19557e-18 8.51891e-05)
(-0.104957 0.041101 2.81558e-19 0.104911 -1.4189e-19 4.607e-05)
(-0.14152 0.100415 1.01547e-18 0.14129 3.16206e-19 0.000229416)
(-0.179078 0.173398 -1.48588e-18 0.178803 4.59438e-19 0.000275091)
(-0.209861 0.261068 -1.38824e-19 0.210989 1.11123e-19 -0.00112762)
(-0.237319 0.35 2.90838e-19 0.234908 4.58669e-19 0.00241151)
(-0.253036 0.465723 4.66421e-19 0.256161 1.40833e-20 -0.00312442)
(-0.194817 0.512979 9.46067e-20 0.200923 -1.18906e-18 -0.00610635)
(0.000403576 -0.000331185 -8.75712e-22 -0.000406524 -1.01907e-21 2.94784e-06)
(0.000292362 -0.000428278 3.54589e-21 -0.000292467 3.70726e-21 1.05704e-07)
(0.000175847 -0.000491875 -8.30808e-22 -0.00017587 -7.34037e-22 2.3004e-08)
(4.90394e-05 -0.000525671 -6.52505e-21 -4.91996e-05 -6.88828e-21 1.60185e-07)
(-8.11754e-05 -0.000517505 -6.14726e-22 8.09646e-05 -8.24303e-22 2.10848e-07)
(-0.000200424 -0.000467105 6.45298e-21 0.000201268 6.90779e-21 -8.43778e-07)
(-0.000338694 -0.000442717 -1.65254e-21 0.000341732 -2.17819e-21 -3.03823e-06)
(-0.000398457 -0.000350336 -1.44531e-20 0.000400521 -1.43836e-20 -2.06384e-06)
(-0.000324447 -0.000230491 1.03665e-20 0.000323461 1.00258e-20 9.85669e-07)
(-0.000231895 -0.000177136 5.23861e-22 0.000230235 -4.99896e-22 1.66037e-06)
(0.000209558 -0.000359817 -1.50335e-21 -0.000202997 -2.48248e-21 -6.56021e-06)
(0.00777011 -0.000889699 -9.37313e-21 -0.00770778 -5.31701e-21 -6.23247e-05)
(0.0890979 -0.00957034 -1.91845e-19 -0.0889585 -1.26646e-19 -0.000139382)
(0.32709 -0.0590839 1.7443e-19 -0.327687 -1.34355e-19 0.000597079)
(0.642197 -0.184651 -6.43056e-19 -0.641861 6.75588e-19 -0.000336021)
(0.754203 -0.341767 5.98573e-19 -0.753825 -3.98575e-19 -0.000377318)
(0.567864 -0.428874 -5.03127e-19 -0.580228 7.54011e-19 0.012364)
(0.313383 -0.370986 -1.08536e-19 -0.318389 -1.80866e-19 0.00500593)
(0.163092 -0.263188 -2.39597e-19 -0.153885 -3.56801e-19 -0.0092075)
(0.0969408 -0.19589 2.88168e-19 -0.0912147 -1.03584e-18 -0.00572612)
(0.0657242 -0.160936 4.52885e-19 -0.0652899 3.27506e-19 -0.0004343)
(0.0476185 -0.144825 -2.42639e-19 -0.0485362 -9.94471e-19 0.000917691)
(0.0379739 -0.137832 -2.26266e-19 -0.0385186 4.47638e-19 0.000544714)
(0.033712 -0.136404 7.01804e-19 -0.0339151 -5.83899e-19 0.000203159)
(0.0326837 -0.138271 -4.12114e-19 -0.0326628 4.92467e-20 -2.09014e-05)
(0.0331848 -0.141768 -5.637e-19 -0.0330678 -3.68522e-19 -0.000117003)
(0.0338432 -0.145295 1.00133e-18 -0.0337347 -1.41432e-18 -0.000108512)
(0.0333557 -0.147075 -2.29499e-20 -0.0332878 1.06732e-18 -6.79389e-05)
(0.030471 -0.145395 1.57985e-22 -0.0304485 -6.45832e-20 -2.24514e-05)
(0.0241115 -0.138652 -5.99849e-19 -0.0241292 1.05225e-18 1.77337e-05)
(0.0133358 -0.125126 6.47683e-20 -0.013397 -6.34695e-19 6.12166e-05)
(-0.00261955 -0.102818 -1.27689e-20 0.0025114 3.25578e-19 0.000108151)
(-0.0241304 -0.0699631 -6.80942e-19 0.023975 -5.74414e-19 0.000155404)
(-0.0509307 -0.0251049 3.67335e-19 0.0507392 1.71045e-18 0.000191564)
(-0.081889 0.0327327 -5.18683e-19 0.081707 2.80374e-19 0.000182027)
(-0.115198 0.103618 -4.88781e-19 0.11488 2.03802e-21 0.000317846)
(-0.147382 0.187558 6.92335e-19 0.147106 -1.83796e-18 0.000275185)
(-0.171731 0.282774 -6.9986e-20 0.172387 7.62949e-19 -0.000655681)