/*--------------------------------*- C++ -*----------------------------------*\
| =========                 |                                                 |
| \\      /  F ield         | OpenFOAM: The Open Source CFD Toolbox           |
|  \\    /   O peration     | Version:  2312                                  |
|   \\  /    A nd           | Website:  www.openfoam.com                      |
|    \\/     M anipulation  |                                                 |
\*---------------------------------------------------------------------------*/
FoamFile
{
    version     2.0;
    format      ascii;
    arch        "LSB;label=32;scalar=64";
    class       volVectorField;
    location    "950";
    object      U;
}
// * * * * * * * * * * * * * * * * * * * * * * * * * * * * * * * * * * * * * //

dimensions      [0 1 -1 0 0 0 0];

internalField   nonuniform List<vector> 
11040
(
(-0.58192 8.74511 -3.4452e-19)
(0.791295 5.80063 -2.08537e-18)
(-0.0224403 -0.113585 -2.28318e-17)
(-1.36992 -1.16214 -1.16894e-17)
(-1.4039 -0.700891 -4.29521e-18)
(-1.38153 -0.603429 -1.6905e-17)
(-1.36456 -0.512369 3.07143e-17)
(-1.31919 -0.426626 2.23333e-17)
(-1.28169 -0.356653 4.40184e-18)
(-1.25317 -0.300474 1.22606e-18)
(-1.22758 -0.255119 -2.09279e-17)
(-1.20273 -0.213682 3.04971e-18)
(-1.18371 -0.177318 8.53184e-18)
(-1.1681 -0.14512 7.16752e-18)
(-1.15649 -0.114778 -6.85156e-18)
(-1.15097 -0.0872609 1.18533e-17)
(-1.15035 -0.0609176 5.5283e-18)
(-1.15721 -0.0356373 -1.41615e-17)
(-1.17238 -0.0108808 -4.2761e-19)
(-1.19587 0.013917 2.31033e-18)
(-1.22798 0.0389596 -2.59436e-18)
(-1.26666 0.0624086 -8.95474e-18)
(-1.31419 0.0832792 9.11344e-18)
(-1.37324 0.103532 -9.31875e-18)
(-1.44247 0.123944 9.59548e-18)
(-1.51839 0.144417 1.71008e-17)
(-1.5954 0.164638 7.2398e-18)
(-1.66613 0.183748 6.77218e-18)
(-1.72347 0.200668 7.09304e-18)
(-1.75878 0.213994 9.41441e-18)
(-1.76156 0.222252 -1.66976e-17)
(-1.72179 0.224476 -1.2809e-17)
(-1.64407 0.220586 -3.91805e-17)
(-1.5219 0.20811 -2.29251e-17)
(-1.3513 0.184007 2.51476e-18)
(-1.12745 0.146575 -3.64819e-17)
(-0.839384 0.0955376 9.93074e-19)
(-0.487872 0.0293646 -2.72886e-17)
(-0.1203 -0.0425722 4.29702e-17)
(0.622182 -0.142631 3.48865e-17)
(0.0807553 -0.521183 -6.1405e-18)
(1.43816 7.91496 2.0741e-19)
(3.0263 8.44226 -2.37424e-19)
(2.65562 5.23195 7.10961e-18)
(0.75015 1.24042 1.16079e-18)
(-1.02918 -0.699893 -5.17903e-19)
(-1.24848 -0.580461 5.92873e-18)
(-1.34074 -0.514244 -9.30653e-19)
(-1.34831 -0.448832 -1.28275e-17)
(-1.34181 -0.387403 5.69144e-19)
(-1.33925 -0.331745 -4.20586e-18)
(-1.33495 -0.288163 6.38579e-18)
(-1.32692 -0.247137 -2.25987e-17)
(-1.32315 -0.208841 -1.78017e-18)
(-1.32093 -0.175395 -1.60892e-17)
(-1.32212 -0.142633 7.27234e-18)
(-1.32892 -0.112317 -2.95002e-18)
(-1.34144 -0.0828803 -4.77965e-18)
(-1.36112 -0.0539267 -4.84837e-18)
(-1.38789 -0.0251036 -6.3015e-19)
(-1.42284 0.00453847 3.76783e-19)
(-1.46621 0.035269 1.3414e-18)
(-1.51706 0.064548 3.84339e-18)
(-1.5758 0.09043 -5.91045e-18)
(-1.64149 0.115443 -1.34479e-18)
(-1.70944 0.140278 -1.6283e-18)
(-1.77399 0.164196 3.33902e-18)
(-1.83 0.186471 2.01828e-18)
(-1.87257 0.206261 -1.11503e-17)
(-1.89633 0.222562 -9.03703e-19)
(-1.89677 0.23417 6.61817e-18)
(-1.8713 0.240261 8.38272e-18)
(-1.81854 0.240595 1.7086e-17)
(-1.7276 0.233056 1.4123e-17)
(-1.59356 0.215495 6.92507e-18)
(-1.41217 0.186051 -3.20669e-18)
(-1.17912 0.143593 1.28983e-17)
(-0.885672 0.0857067 -9.98143e-18)
(-0.531589 0.00501413 7.47472e-18)
(-0.16083 -0.0889148 -3.05897e-18)
(0.560145 -0.199184 -4.25835e-18)
(0.604956 -0.463714 5.80842e-18)
(1.82028 7.04604 -1.62099e-20)
(3.32296 8.13349 1.08375e-18)
(4.12541 7.88246 -2.0132e-18)
(3.4228 5.36726 -3.19549e-18)
(1.46293 1.99935 3.08655e-19)
(-0.447918 -0.202278 -4.11985e-18)
(-1.0264 -0.426746 -8.74862e-18)
(-1.20603 -0.417854 -8.06313e-18)
(-1.25848 -0.374424 5.84589e-18)
(-1.29228 -0.327096 2.66326e-19)
(-1.3167 -0.290926 3.5606e-18)
(-1.32847 -0.25363 1.1666e-17)
(-1.34082 -0.215286 -9.05124e-18)
(-1.35135 -0.182159 9.96458e-18)
(-1.36321 -0.148109 -6.19952e-18)
(-1.37885 -0.116321 -2.78891e-18)
(-1.39833 -0.0850233 1.32756e-18)
(-1.42356 -0.0539593 1.8833e-18)
(-1.4547 -0.0230679 9.45621e-20)
(-1.49258 0.00879037 -9.01921e-20)
(-1.53733 0.0418027 -3.11282e-18)
(-1.58721 0.0735423 -2.6225e-18)
(-1.6415 0.101226 5.41462e-19)
(-1.69927 0.127011 -3.70034e-19)
(-1.75709 0.151522 3.17858e-18)
(-1.81109 0.174165 -7.00982e-18)
(-1.85766 0.194312 -5.05177e-18)
(-1.89292 0.211201 7.30751e-18)
(-1.9126 0.22403 1.77523e-18)
(-1.91237 0.231839 -1.10983e-18)
(-1.88769 0.233629 -7.28509e-18)
(-1.83324 0.228235 3.04602e-18)
(-1.74247 0.214071 -6.84109e-18)
(-1.6103 0.189445 -9.0937e-18)
(-1.43244 0.152641 2.00322e-18)
(-1.20499 0.102682 5.12876e-18)
(-0.919775 0.0372542 7.69728e-18)
(-0.574625 -0.0522777 -7.85808e-18)
(-0.212455 -0.16359 -1.58939e-18)
(0.450765 -0.279029 -2.08734e-18)
(0.643464 -0.626154 -3.43615e-18)
(2.21899 6.62194 -5.66062e-20)
(3.12211 7.32992 -2.05542e-19)
(4.17607 8.03012 1.07456e-18)
(4.70814 7.62367 2.00463e-18)
(4.01183 5.55709 -2.81946e-19)
(2.18781 2.64354 -2.58269e-18)
(0.193915 0.351162 1.75629e-18)
(-0.73228 -0.250818 4.24297e-18)
(-1.02765 -0.307621 -3.22772e-18)
(-1.14053 -0.284581 3.66395e-18)
(-1.21297 -0.266821 -8.58878e-18)
(-1.25506 -0.242521 1.15761e-18)
(-1.28896 -0.208908 1.24629e-18)
(-1.31549 -0.179529 -7.91408e-18)
(-1.33868 -0.14641 -3.85338e-18)
(-1.36282 -0.114874 2.434e-18)
(-1.38829 -0.0831971 4.6214e-18)
(-1.41786 -0.0512445 2.14574e-18)
(-1.45174 -0.019454 -1.33417e-19)
(-1.49082 0.0134438 1.42691e-19)
(-1.53522 0.0473098 8.12597e-19)
(-1.58315 0.0799921 2.44128e-18)
(-1.6338 0.108511 8.29869e-19)
(-1.68685 0.134583 1.48486e-18)
(-1.7401 0.158674 2.24946e-18)
(-1.79067 0.180325 1.00849e-17)
(-1.83538 0.198922 -7.35604e-19)
(-1.87048 0.213623 -1.29878e-18)
(-1.89166 0.223514 -4.46717e-18)
(-1.89419 0.227503 -3.88738e-18)
(-1.87295 0.224404 5.41708e-18)
(-1.82257 0.212911 -4.56952e-18)
(-1.73762 0.191601 1.20253e-17)
(-1.61295 0.158856 3.17596e-18)
(-1.44424 0.112968 2.50593e-18)
(-1.22781 0.0529026 5.28184e-19)
(-0.956123 -0.0232129 -1.1871e-19)
(-0.625874 -0.123597 -6.22058e-19)
(-0.278103 -0.253414 1.68835e-18)
(0.308015 -0.369147 -2.42677e-18)
(0.565631 -0.725318 6.48004e-19)
(2.67574 6.13662 1.14217e-19)
(3.35745 6.68957 -1.11607e-19)
(4.06329 7.2401 -9.4235e-19)
(4.84258 7.75294 -1.52512e-18)
(5.22038 7.44251 1.52707e-18)
(4.61762 5.82144 -1.14151e-19)
(2.96716 3.30875 4.5652e-19)
(0.981767 1.02505 2.76741e-18)
(-0.341865 -0.0336929 -1.13273e-18)
(-0.788741 -0.174299 -1.97531e-18)
(-0.994291 -0.198676 -2.79631e-18)
(-1.10105 -0.201868 -1.88239e-20)
(-1.17104 -0.183028 -9.52435e-20)
(-1.22421 -0.164108 5.00061e-18)
(-1.26449 -0.136 3.00513e-18)
(-1.3008 -0.107145 1.17979e-19)
(-1.33407 -0.0768418 -2.00167e-18)
(-1.36875 -0.0452859 2.21419e-18)
(-1.40556 -0.0137693 -3.2494e-19)
(-1.44591 0.0191587 7.74395e-19)
(-1.49041 0.0529568 -1.5826e-18)
(-1.53768 0.0858406 -1.67445e-19)
(-1.58705 0.114754 2.09568e-18)
(-1.63861 0.141014 -2.24883e-18)
(-1.6909 0.164832 -4.93181e-18)
(-1.74148 0.185686 -2.48541e-18)
(-1.78735 0.202838 5.14562e-19)
(-1.82483 0.215297 -3.96938e-18)
(-1.84959 0.221982 1.11768e-19)
(-1.85685 0.221659 3.69429e-18)
(-1.84152 0.213028 -2.88292e-18)
(-1.79846 0.194749 6.01073e-19)
(-1.72261 0.165449 -8.33401e-18)
(-1.6089 0.123552 -3.96046e-18)
(-1.45307 0.0673743 -2.2844e-18)
(-1.25166 -0.00415961 -2.16663e-18)
(-0.99807 -0.0924404 1.19242e-18)
(-0.688931 -0.204901 -5.4072e-20)
(-0.360519 -0.350381 8.82468e-19)
(0.141805 -0.471618 3.23554e-18)
(0.430978 -0.796454 -1.86634e-18)
(3.0792 5.69627 -1.48193e-19)
(3.59125 6.2135 2.20667e-19)
(4.11201 6.6121 2.03189e-19)
(4.69459 7.0506 5.46247e-19)
(5.33108 7.46592 -4.1207e-19)
(5.67253 7.30611 2.0177e-19)
(5.22514 6.1042 4.9985e-19)
(3.8196 4.01066 1.86978e-20)
(1.89711 1.80206 -1.00666e-19)
(0.256831 0.346194 4.16297e-18)
(-0.468157 -0.0266881 4.66126e-18)
(-0.798089 -0.105292 -2.12872e-18)
(-0.956639 -0.120004 -1.35343e-18)
(-1.06372 -0.124888 6.26578e-18)
(-1.13474 -0.111184 -5.27896e-18)
(-1.19242 -0.0900231 2.31181e-18)
(-1.23947 -0.0644033 2.17388e-19)
(-1.28299 -0.0351107 6.11711e-19)
(-1.32502 -0.00520694 7.22272e-19)
(-1.36811 0.0268522 -3.56872e-19)
(-1.41389 0.0598909 -7.5551e-19)
(-1.46179 0.092568 5.48164e-19)
(-1.51152 0.121678 -9.24065e-19)
(-1.56343 0.1481 -6.51822e-19)
(-1.61659 0.171712 4.73339e-18)
(-1.66886 0.191833 -3.1164e-18)
(-1.71742 0.207523 -7.30277e-19)
(-1.75872 0.217589 4.91743e-18)
(-1.78858 0.220757 3.86859e-18)
(-1.80233 0.215643 -1.89886e-18)
(-1.79506 0.200838 -1.54251e-18)
(-1.76189 0.174962 -4.86636e-19)
(-1.69798 0.136676 3.86704e-18)
(-1.59845 0.08445 4.03789e-18)
(-1.45921 0.0166738 1.14821e-18)
(-1.27711 -0.0676562 -1.54003e-18)
(-1.04673 -0.169382 -2.19219e-19)
(-0.765738 -0.294781 -1.05918e-18)
(-0.463691 -0.451996 -2.5666e-18)
(-0.0422962 -0.583048 -1.24809e-19)
(0.25403 -0.859886 1.97382e-18)
(3.46314 5.33818 -2.84178e-20)
(3.83264 5.77479 1.64183e-19)
(4.22935 6.16437 2.49583e-20)
(4.66224 6.46893 4.49991e-19)
(5.15928 6.80466 2.27665e-19)
(5.70487 7.15818 -7.76137e-19)
(6.05694 7.15297 2.27393e-19)
(5.80111 6.35148 -2.04646e-19)
(4.6955 4.70172 -1.50583e-18)
(2.93229 2.66339 3.90351e-20)
(1.13704 0.970982 -5.59672e-18)
(-0.0267522 0.172226 7.32346e-18)
(-0.513188 0.0124961 -5.87878e-18)
(-0.776822 -0.0376342 -6.57201e-19)
(-0.920481 -0.0549149 2.83838e-18)
(-1.02224 -0.0536193 -1.01352e-18)
(-1.09636 -0.040804 3.96188e-18)
(-1.15705 -0.0178445 -1.63137e-18)
(-1.20977 0.00789529 3.75674e-19)
(-1.25907 0.0376606 -2.96495e-19)
(-1.30818 0.0690164 3.08391e-19)
(-1.35791 0.101069 -4.0589e-19)
(-1.40896 0.13023 2.14436e-18)
(-1.4621 0.156843 -7.03918e-19)
(-1.51699 0.180366 -1.77605e-18)
(-1.57183 0.199858 8.32621e-19)
(-1.62399 0.214128 2.70903e-18)
(-1.67017 0.221725 -1.33767e-18)
(-1.70642 0.221142 3.6564e-20)
(-1.72829 0.210828 -1.05947e-18)
(-1.73113 0.189255 6.79389e-20)
(-1.71029 0.154988 -1.7902e-18)
(-1.66123 0.106725 -3.8928e-20)
(-1.57936 0.0430109 8.06039e-19)
(-1.46087 -0.0376097 2.69714e-18)
(-1.303 -0.135897 -2.08278e-18)
(-1.1017 -0.252048 -2.42629e-18)
(-0.856149 -0.390703 2.00679e-18)
(-0.588394 -0.556167 -7.47684e-19)
(-0.243656 -0.699705 2.27115e-20)
(0.0378668 -0.925342 9.52518e-20)
(3.8109 5.03499 -7.64797e-21)
(4.09626 5.39829 -6.10732e-20)
(4.39191 5.74402 4.01746e-20)
(4.72637 6.04137 -2.474e-19)
(5.09834 6.27412 -1.4908e-19)
(5.52117 6.52643 -2.56064e-19)
(5.99527 6.82937 1.09241e-18)
(6.36559 6.94921 1.77943e-19)
(6.30638 6.50686 5.2189e-19)
(5.53318 5.31148 -1.10375e-18)
(4.04943 3.56735 1.17756e-18)
(2.245 1.80492 1.67957e-18)
(0.710061 0.589391 -4.28561e-18)
(-0.123869 0.153547 6.37359e-18)
(-0.516261 0.0593835 1.06543e-19)
(-0.737709 0.0248302 -1.28866e-18)
(-0.875614 0.00986098 -4.69298e-18)
(-0.974237 0.0155008 -3.75235e-19)
(-1.05056 0.0301108 -1.47667e-18)
(-1.11392 0.0540704 5.58472e-18)
(-1.17088 0.0817249 -3.52111e-18)
(-1.22456 0.112321 5.93528e-19)
(-1.27775 0.14128 1.18357e-18)
(-1.33243 0.168138 2.05686e-19)
(-1.38916 0.19179 4.62393e-19)
(-1.44675 0.210884 2.11051e-19)
(-1.50295 0.223907 1.09997e-18)
(-1.55471 0.22911 -6.50398e-19)
(-1.59839 0.224717 -2.64677e-18)
(-1.62985 0.208975 -7.65259e-19)
(-1.64475 0.18022 2.27039e-18)
(-1.63875 0.136952 1.06092e-18)
(-1.60763 0.0779228 8.66992e-20)
(-1.54724 0.0017998 -1.86513e-18)
(-1.45418 -0.0926073 -1.0444e-18)
(-1.32608 -0.205608 6.84467e-19)
(-1.16034 -0.336637 1.59366e-18)
(-0.95748 -0.488205 -8.8402e-19)
(-0.732698 -0.659625 6.15156e-19)
(-0.461182 -0.814201 -1.31318e-18)
(-0.214476 -0.995186 -1.96273e-19)
(4.13255 4.77406 -2.03349e-20)
(4.36129 5.0791 -1.36567e-19)
(4.58927 5.37257 2.94362e-19)
(4.84218 5.64769 3.61581e-20)
(5.13138 5.88076 -5.92531e-20)
(5.45115 6.05914 1.00647e-20)
(5.81035 6.24262 -4.23886e-19)
(6.22035 6.48884 -4.34297e-19)
(6.59774 6.68253 -6.08308e-21)
(6.70817 6.5294 -8.16982e-19)
(6.2693 5.77638 -2.7032e-19)
(5.14844 4.41922 8.02849e-19)
(3.50436 2.76307 5.10581e-19)
(1.78583 1.29727 -2.15917e-18)
(0.508751 0.437011 7.44368e-18)
(-0.14047 0.177284 -3.58093e-18)
(-0.482434 0.11313 3.1046e-18)
(-0.682629 0.0868624 -4.85763e-18)
(-0.816704 0.0762705 -1.51109e-19)
(-0.914213 0.0842819 1.64204e-18)
(-0.991269 0.101972 -2.19441e-18)
(-1.05535 0.128291 -2.90982e-19)
(-1.11363 0.15592 5.83119e-19)
(-1.17078 0.182795 -1.93397e-18)
(-1.22924 0.206849 -5.36506e-19)
(-1.28908 0.226012 -1.42756e-18)
(-1.34889 0.238302 -2.59041e-18)
(-1.40623 0.241551 9.80829e-19)
(-1.45786 0.233636 7.18764e-19)
(-1.50001 0.212576 2.32733e-18)
(-1.52869 0.176583 -9.27919e-19)
(-1.53992 0.124097 6.65536e-19)
(-1.5299 0.0539402 -7.7374e-19)
(-1.495 -0.0350256 1.87418e-18)
(-1.4323 -0.143589 -2.10099e-19)
(-1.33989 -0.271404 4.84278e-19)
(-1.21639 -0.416988 -2.40916e-18)
(-1.0632 -0.580405 1.54528e-18)
(-0.890283 -0.756497 -1.14585e-19)
(-0.689969 -0.91768 8.02441e-19)
(-0.492735 -1.06722 -8.29787e-19)
(4.42898 4.54741 -1.10731e-19)
(4.61769 4.80491 4.13576e-19)
(4.79979 5.05384 -1.45678e-19)
(4.99557 5.29162 -2.01872e-19)
(5.21774 5.51234 1.39727e-19)
(5.46858 5.69842 -3.25894e-19)
(5.74337 5.83802 1.03466e-19)
(6.04757 5.96791 1.66028e-18)
(6.3972 6.15211 -1.74363e-18)
(6.76034 6.36206 -1.75995e-19)
(6.98961 6.40872 8.71755e-20)
(6.84528 6.03792 6.53928e-20)
(6.12105 5.11097 8.73483e-19)
(4.79585 3.73095 -3.28793e-19)
(3.12122 2.23166 1.91839e-18)
(1.53645 1.02522 -2.33519e-18)
(0.452249 0.393488 1.02966e-18)
(-0.104295 0.217386 -8.96013e-19)
(-0.416287 0.171255 1.7221e-18)
(-0.606502 0.14965 1.35957e-18)
(-0.736609 0.143473 5.8884e-19)
(-0.829831 0.15624 -1.59406e-18)
(-0.903562 0.177587 1.49409e-18)
(-0.968548 0.202509 8.40205e-19)
(-1.03098 0.226598 -2.33753e-18)
(-1.09348 0.246232 1.6045e-18)
(-1.15638 0.258576 1.82796e-18)
(-1.21852 0.260825 -2.11643e-18)
(-1.27755 0.250363 2.85498e-19)
(-1.33043 0.22487 -1.81371e-18)
(-1.37373 0.182354 9.43503e-19)
(-1.40394 0.121194 -1.23284e-18)
(-1.4177 0.0403163 -3.98349e-19)
(-1.41191 -0.0610949 6.55482e-20)
(-1.38416 -0.183281 -8.25749e-19)
(-1.333 -0.325074 2.40943e-19)
(-1.25785 -0.483909 6.87444e-19)
(-1.16045 -0.657471 -9.31371e-19)
(-1.04715 -0.837516 -1.36091e-19)
(-0.917079 -1.00158 -1.13131e-18)
(-0.778845 -1.13338 7.93036e-19)
(4.70209 4.34781 -1.13311e-19)
(4.86171 4.5667 -3.42532e-19)
(5.01206 4.7773 2.11324e-20)
(5.16838 4.98071 7.04696e-20)
(5.34163 5.17464 -3.19264e-20)
(5.53697 5.35334 -2.36686e-19)
(5.7546 5.50511 1.69296e-20)
(5.99074 5.61807 1.37309e-20)
(6.24794 5.71001 1.19133e-19)
(6.5409 5.834 1.62736e-18)
(6.86832 6.01431 5.23813e-19)
(7.15724 6.16203 1.37079e-19)
(7.23541 6.07688 -1.06125e-18)
(6.88647 5.56412 2.36103e-18)
(5.97666 4.57162 -1.96624e-18)
(4.56309 3.25239 1.18247e-18)
(2.92643 1.91818 -1.75671e-18)
(1.46475 0.905236 -4.88665e-18)
(0.496225 0.403038 3.17858e-19)
(-0.0187701 0.264412 6.44391e-18)
(-0.313767 0.229424 -3.52579e-18)
(-0.491462 0.2173 3.99042e-18)
(-0.610142 0.22034 -1.99175e-18)
(-0.700094 0.235152 3.2303e-19)
(-0.776385 0.254836 -2.10525e-19)
(-0.846813 0.273459 -1.61348e-18)
(-0.915119 0.286226 1.34397e-18)
(-0.982638 0.288758 -1.08673e-18)
(-1.04877 0.277396 8.9233e-19)
(-1.11178 0.249229 5.94664e-19)
(-1.16931 0.202017 7.77727e-20)
(-1.21871 0.134073 5.34415e-19)
(-1.25731 0.0443696 3.10414e-19)
(-1.28276 -0.0676111 -1.29168e-18)
(-1.2931 -0.20148 -7.6035e-19)
(-1.28714 -0.355112 5.30751e-19)
(-1.26466 -0.524782 6.40278e-19)
(-1.22719 -0.706244 1.26188e-19)
(-1.17845 -0.889611 1.27287e-18)
(-1.11836 -1.05526 9.0229e-19)
(-1.04548 -1.18163 2.00344e-19)
(4.95321 4.17036 -1.28907e-19)
(5.09079 4.35764 6.4012e-20)
(5.21838 4.53647 3.06798e-19)
(5.34683 4.70926 -2.79381e-19)
(5.48559 4.87661 3.45607e-20)
(5.63951 5.03544 5.03298e-20)
(5.81122 5.18156 9.30752e-20)
(6.00034 5.3072 -6.85081e-19)
(6.20382 5.40192 -1.72111e-18)
(6.42156 5.46969 2.27096e-18)
(6.66372 5.54514 -1.57463e-18)
(6.94351 5.67169 -4.09056e-19)
(7.23945 5.83541 -7.06096e-19)
(7.45093 5.91855 -4.05608e-19)
(7.40342 5.74044 9.27857e-19)
(6.91884 5.16288 -4.17208e-19)
(5.91784 4.18333 1.97975e-18)
(4.49514 2.96269 -1.85503e-18)
(2.92155 1.77155 -8.40074e-19)
(1.54626 0.883354 5.99197e-18)
(0.629646 0.437938 -3.59863e-18)
(0.140362 0.315761 -2.21273e-19)
(-0.128764 0.30187 8.45623e-19)
(-0.297439 0.30383 3.02978e-18)
(-0.417477 0.309267 -2.54956e-18)
(-0.513268 0.31859 -5.54972e-19)
(-0.597228 0.327292 -6.17853e-19)
(-0.676039 0.328844 3.2778e-18)
(-0.752364 0.317592 -1.44418e-18)
(-0.826801 0.289112 -4.6989e-19)
(-0.898784 0.240288 1.58514e-18)
(-0.967108 0.168988 -1.34109e-18)
(-1.0302 0.0740674 -6.65321e-19)
(-1.08679 -0.0447182 7.88224e-19)
(-1.13562 -0.186276 5.83322e-19)
(-1.17573 -0.347621 1.03784e-19)
(-1.2069 -0.524158 -3.01868e-19)
(-1.23007 -0.710506 -1.78779e-19)
(-1.24666 -0.896343 -6.33877e-19)
(-1.2555 -1.0644 5.5824e-19)
(-1.25155 -1.19502 -1.01602e-19)
(5.1835 4.01135 2.05556e-19)
(5.30384 4.17242 -4.60344e-19)
(5.41444 4.32487 4.29808e-19)
(5.52305 4.47149 1.09602e-19)
(5.637 4.61437 -1.02108e-19)
(5.7609 4.75242 5.67249e-20)
(5.89762 4.88307 4.97865e-19)
(6.04863 5.00326 2.95859e-19)
(6.21347 5.10805 1.63309e-19)
(6.38948 5.18927 7.99016e-20)
(6.57472 5.2435 -5.70768e-19)
(6.77524 5.28756 9.05891e-19)
(7.00592 5.35943 -8.97333e-20)
(7.27189 5.48453 9.32753e-19)
(7.53299 5.62391 -2.53649e-18)
(7.67928 5.65784 2.60995e-18)
(7.55089 5.43529 -7.65025e-19)
(7.00417 4.85753 -2.2519e-18)
(5.99035 3.94143 1.87733e-18)
(4.60877 2.83109 -2.18975e-18)
(3.1008 1.75354 1.62357e-18)
(1.81452 0.953001 -6.46486e-19)
(0.963176 0.533056 2.61056e-18)
(0.472217 0.396924 -1.03892e-18)
(0.183396 0.385936 -5.25405e-18)
(-0.00176905 0.399334 2.86151e-18)
(-0.135479 0.404979 1.20124e-18)
(-0.245357 0.399922 -2.90361e-19)
(-0.343627 0.383745 2.26687e-19)
(-0.436513 0.353105 -6.76846e-19)
(-0.527025 0.303933 -3.23363e-18)
(-0.616421 0.232754 3.37576e-18)
(-0.704799 0.137518 -2.13272e-19)
(-0.791966 0.0176638 -9.4303e-19)
(-0.877861 -0.125693 1.01929e-18)
(-0.961848 -0.289035 -1.37013e-19)
(-1.04355 -0.46705 -2.51969e-19)
(-1.12345 -0.653909 4.55815e-19)
(-1.20128 -0.839971 2.08166e-19)
(-1.275 -1.01099 -4.22921e-19)
(-1.3393 -1.1515 -2.14625e-19)
(5.394 3.86804 5.99375e-21)
(5.50037 4.00712 2.24114e-19)
(5.59778 4.13753 4.26589e-19)
(5.69168 4.26207 -5.02608e-19)
(5.78775 4.38344 -2.04009e-20)
(5.8899 4.50173 -1.13076e-19)
(6.00072 4.61568 -2.76772e-19)
(6.12217 4.72328 -3.25403e-19)
(6.25519 4.82226 4.51659e-19)
(6.39925 4.90941 1.41838e-18)
(6.55206 4.97922 -4.8371e-19)
(6.71162 5.0264 9.86332e-19)
(6.8801 5.05484 -1.18206e-20)
(7.0675 5.08688 -1.89998e-18)
(7.28743 5.1555 -7.68775e-19)
(7.53696 5.27163 1.75771e-18)
(7.7679 5.38796 -9.54062e-19)
(7.87457 5.39692 1.27974e-18)
(7.71683 5.17507 -1.84918e-18)
(7.1755 4.64594 1.21973e-19)
(6.20861 3.82685 -1.59158e-19)
(4.95964 2.87298 3.82541e-18)
(3.66704 1.96977 -1.17245e-19)
(2.52056 1.24406 -2.45452e-18)
(1.64981 0.77371 -4.99063e-19)
(1.0676 0.548139 -7.93029e-19)
(0.696037 0.482659 -2.73371e-18)
(0.45219 0.482134 3.42028e-18)
(0.279513 0.484564 -2.79485e-18)
(0.141747 0.465147 -9.43351e-20)
(0.0183707 0.419644 7.78793e-19)
(-0.100424 0.348983 -4.68274e-19)
(-0.218838 0.253992 3.56543e-19)
(-0.338898 0.135457 -1.45109e-19)
(-0.46145 -0.00501287 1.6654e-18)
(-0.586979 -0.16424 -1.46286e-18)
(-0.714953 -0.337791 1.05938e-19)
(-0.845637 -0.520609 6.99691e-20)
(-0.97756 -0.704304 9.03786e-20)
(-1.10834 -0.87744 -3.06195e-20)
(-1.235 -1.0284 2.52348e-19)
(5.58562 3.73839 -3.65906e-19)
(5.68036 3.85872 1.72711e-19)
(5.76712 3.97051 -6.39973e-19)
(5.8497 4.07637 2.97948e-19)
(5.93252 4.17922 -1.43221e-19)
(6.01867 4.27975 2.70121e-20)
(6.11053 4.37744 -7.93952e-20)
(6.20978 4.47126 8.36062e-20)
(6.31778 4.55965 -9.92289e-19)
(6.43509 4.64075 5.33821e-19)
(6.56117 4.71242 7.35743e-20)
(6.69474 4.77171 -3.44912e-18)
(6.83404 4.81401 2.18568e-18)
(6.9784 4.83687 1.58077e-19)
(7.13236 4.84827 1.99125e-18)
(7.3074 4.87085 -1.81263e-18)
(7.51498 4.93113 2.93341e-19)
(7.74827 5.03285 1.43122e-18)
(7.96 5.13199 -1.53258e-18)
(8.05831 5.13961 5.80614e-19)
(7.91787 4.95214 1.877e-19)
(7.46435 4.53282 -3.90909e-19)
(6.72147 3.92545 1.389e-19)
(5.771 3.2065 -3.96791e-19)
(4.72791 2.46923 2.5653e-18)
(3.7092 1.79994 -3.6418e-18)
(2.81559 1.2651 3.21222e-18)
(2.1082 0.897909 9.31209e-19)
(1.58822 0.686499 -1.41426e-18)
(1.21486 0.583971 -5.84462e-19)
(0.940685 0.5338 -3.4307e-19)
(0.727418 0.489846 2.32594e-18)
(0.547251 0.425147 -2.78444e-19)
(0.381054 0.330349 -2.95912e-18)
(0.217616 0.20642 6.33239e-19)
(0.0517481 0.0585926 8.63555e-19)
(-0.118642 -0.106678 -7.3029e-19)
(-0.29589 -0.283727 7.11262e-19)
(-0.477106 -0.464801 2.44417e-19)
(-0.659113 -0.640577 1.08482e-19)
(-0.842194 -0.801496 -5.3726e-19)
(5.75896 3.62079 2.69403e-19)
(5.84374 3.72495 -3.23194e-19)
(5.92163 3.82084 6.87332e-19)
(5.99519 3.91084 -2.96145e-20)
(6.06787 3.99783 6.63943e-20)
(6.14215 4.08275 2.62269e-19)
(6.21992 4.16553 -5.54508e-20)
(6.30271 4.24566 6.29612e-20)
(6.39176 4.32231 2.65455e-19)
(6.48793 4.39418 -5.20602e-20)
(6.59144 4.45974 1.26825e-18)
(6.70219 4.51779 -1.75236e-18)
(6.8196 4.56672 3.03816e-18)
(6.94213 4.60348 -2.31966e-18)
(7.06816 4.62441 -1.08729e-18)
(7.19838 4.6293 -4.20322e-19)
(7.33868 4.62723 -7.18659e-19)
(7.50061 4.63827 7.48549e-19)
(7.6939 4.68345 9.15736e-20)
(7.91321 4.76611 5.46838e-19)
(8.11778 4.85001 -2.7381e-19)
(8.22842 4.86933 3.01596e-19)
(8.17576 4.77102 1.15512e-18)
(7.92498 4.53053 -1.43387e-18)
(7.47337 4.1537 7.28175e-19)
(6.84915 3.67148 7.86619e-19)
(6.10317 3.12856 9.43769e-20)
(5.29746 2.57319 -3.65294e-18)
(4.49487 2.05 8.63639e-19)
(3.7508 1.59452 1.8854e-18)
(3.10324 1.22728 -1.38859e-18)
(2.56466 0.94927 3.01773e-18)
(2.12496 0.744361 -2.84293e-18)
(1.76171 0.587848 3.95352e-19)
(1.45293 0.455753 9.81455e-19)
(1.18077 0.329382 -9.57712e-19)
(0.931554 0.19671 4.95476e-19)
(0.693472 0.0515297 -5.62564e-20)
(0.460964 -0.106384 -8.33473e-19)
(0.231816 -0.271322 -3.22299e-20)
(-0.00421583 -0.434756 7.50994e-21)
(5.91439 3.51374 1.55784e-20)
(5.9904 3.60386 -1.99866e-19)
(6.06058 3.68609 -6.36164e-20)
(6.12663 3.76261 3.4987e-19)
(6.19123 3.83614 8.29721e-22)
(6.25636 3.90765 -2.49417e-20)
(6.32351 3.97729 -2.97484e-19)
(6.39398 4.04485 1.80232e-19)
(6.46881 4.10987 -1.02175e-19)
(6.54885 4.1716 8.57121e-19)
(6.63454 4.22896 -1.80653e-19)
(6.72617 4.28099 -1.64404e-19)
(6.82387 4.32678 1.20308e-18)
(6.92724 4.36529 -4.62569e-19)
(7.0353 4.39493 -6.65765e-19)
(7.14655 4.41305 -5.64625e-19)
(7.25989 4.41697 -3.92913e-19)
(7.3767 4.40732 2.99395e-18)
(7.50299 4.39195 -3.13506e-18)
(7.6494 4.38715 1.84857e-21)
(7.82631 4.4103 1.88172e-18)
(8.02252 4.46249 -1.6721e-18)
(8.20796 4.52411 1.62252e-18)
(8.34812 4.56441 -7.09794e-19)
(8.40667 4.55155 -8.17326e-19)
(8.35522 4.46248 2.21759e-18)
(8.17845 4.2874 -8.4469e-19)
(7.87596 4.02973 1.16016e-18)
(7.46089 3.70324 -3.16894e-18)
(6.95632 3.32774 3.97689e-19)
(6.39064 2.9253 1.38545e-18)
(5.79385 2.51767 -1.81765e-19)
(5.19483 2.12393 -3.14201e-19)
(4.61523 1.75725 1.1628e-19)
(4.07086 1.42564 -4.69516e-20)
(3.5706 1.13162 2.80736e-19)
(3.11637 0.872369 -7.57152e-19)
(2.69947 0.640446 6.10201e-19)
(2.3151 0.430908 -3.23732e-19)
(1.95937 0.240369 2.98006e-19)
(1.61245 0.0684315 2.95529e-20)
(6.04674 3.42066 9.67717e-21)
(6.11519 3.49902 -4.14726e-19)
(6.17875 3.5699 4.15294e-19)
(6.23855 3.63536 -3.83595e-19)
(6.2967 3.69789 -6.34749e-20)
(6.35479 3.75845 1.90415e-19)
(6.414 3.81725 2.36428e-19)
(6.47536 3.87426 -8.90668e-19)
(6.5398 3.92925 -5.92742e-20)
(6.608 3.98168 1.44385e-18)
(6.68046 4.03082 -1.92093e-18)
(6.75755 4.07599 5.11918e-19)
(6.83956 4.11641 4.85601e-19)
(6.92649 4.15127 -8.29709e-19)
(7.01812 4.17982 2.00111e-18)
(7.11388 4.20125 -2.61844e-19)
(7.21275 4.21415 -5.83502e-18)
(7.31337 4.21632 5.02198e-18)
(7.41498 4.2056 -1.84621e-18)
(7.5189 4.18238 -1.33292e-18)
(7.63103 4.15297 1.74591e-18)
(7.75635 4.13012 1.77977e-18)
(7.89749 4.12482 -2.62971e-18)
(8.05435 4.14065 2.45553e-18)
(8.21803 4.17254 -6.65769e-19)
(8.37283 4.20788 6.11951e-19)
(8.4994 4.23031 -1.12915e-18)
(8.5785 4.22376 1.163e-18)
(8.59451 4.17576 4.2841e-19)
(8.53711 4.07901 -2.19338e-18)
(8.40225 3.93189 2.60337e-19)
(8.19178 3.73767 -1.24864e-19)
(7.9128 3.50338 1.26437e-18)
(7.57386 3.23695 3.31213e-20)
(7.18639 2.94787 -7.12351e-20)
(6.76339 2.64628 -1.32543e-19)
(6.31918 2.34182 -5.01579e-20)
(5.85985 2.039 -1.08515e-19)
(5.39521 1.74456 -3.9293e-19)
(4.93774 1.46297 3.89172e-20)
(4.47349 1.19569 6.52031e-20)
(6.15456 3.3432 1.70652e-19)
(6.21674 3.41189 3.2211e-19)
(6.2748 3.47349 -2.24066e-19)
(6.32947 3.52997 -3.79035e-19)
(6.38246 3.5836 -1.36181e-20)
(6.43506 3.63527 1.57314e-19)
(6.48824 3.68521 -1.49737e-19)
(6.54286 3.73349 2.33169e-19)
(6.59966 3.78002 5.48027e-19)
(6.65925 3.82446 -1.0384e-18)
(6.72208 3.86627 -1.34392e-18)
(6.7885 3.90497 1.60361e-18)
(6.85884 3.93996 1.43126e-18)
(6.9332 3.97052 -2.13665e-18)
(7.01153 3.99593 2.5098e-18)
(7.09367 4.01559 1.71599e-18)
(7.17931 4.02893 -1.31551e-18)
(7.26782 4.03529 -2.17432e-18)
(7.35824 4.03344 -2.78131e-19)
(7.44927 4.02144 1.7591e-18)
(7.54005 3.99733 -3.47481e-18)
(7.62868 3.96289 2.74129e-18)
(7.71651 3.92323 3.40621e-19)
(7.80927 3.88458 7.24227e-19)
(7.91176 3.85356 -1.24828e-18)
(8.0266 3.83474 6.11985e-19)
(8.15298 3.82923 -5.40468e-19)
(8.28625 3.83432 -3.75049e-19)
(8.41857 3.84405 7.40064e-19)
(8.54024 3.8508 -4.74577e-19)
(8.6411 3.8466 -2.4161e-19)
(8.71167 3.82433 9.49207e-19)
(8.74443 3.77871 -1.21344e-18)
(8.73397 3.70646 6.57103e-19)
(8.67703 3.60645 6.08872e-20)
(8.57275 3.47978 -7.70182e-19)
(8.42363 3.32963 5.50791e-19)
(8.23029 3.15765 1.17152e-19)
(7.99587 2.96811 -2.4772e-19)
(7.72982 2.7662 -7.3805e-20)
(7.42152 2.55177 -5.93917e-20)
(6.24347 3.27784 -1.04595e-19)
(6.30033 3.33843 4.02094e-20)
(6.35367 3.3923 -8.30438e-20)
(6.40398 3.44135 -1.27503e-19)
(6.45265 3.48765 9.44212e-20)
(6.50075 3.53199 -1.78112e-20)
(6.54909 3.57464 6.37393e-20)
(6.59839 3.61569 -2.27518e-19)
(6.64926 3.65512 2.87608e-20)
(6.70223 3.6927 1.36986e-19)
(6.75767 3.72804 -4.91509e-19)
(6.81591 3.76078 7.86299e-19)
(6.87726 3.79047 -1.78407e-18)
(6.94185 3.81657 1.08793e-18)
(7.0097 3.83846 6.7654e-19)
(7.08075 3.85553 4.65878e-19)
(7.15483 3.86722 2.00397e-19)
(7.23171 3.87304 -3.39362e-19)
(7.31101 3.87255 -1.01683e-18)
(7.39216 3.86516 2.01524e-18)
(7.47414 3.84973 9.40977e-20)
(7.55304 3.82594 -2.208e-18)
(7.62622 3.79415 9.9518e-19)
(7.69473 3.755 1.11544e-18)
(7.76032 3.71044 -2.26397e-18)
(7.82577 3.66341 2.04196e-18)
(7.89428 3.61732 -1.73274e-18)
(7.96865 3.57533 7.76215e-20)
(8.05063 3.53971 5.3427e-19)
(8.14043 3.51136 1.39793e-18)
(8.23656 3.48975 -1.84203e-18)
(8.33606 3.47308 5.23697e-19)
(8.43478 3.45859 9.66203e-19)
(8.52821 3.44322 -7.61685e-19)
(8.61148 3.4238 -8.97462e-20)
(8.67964 3.39752 -2.74857e-20)
(8.72863 3.3623 1.48338e-19)
(8.75547 3.31645 -1.01691e-19)
(8.75696 3.25876 6.9674e-20)
(8.73309 3.18979 -1.20941e-19)
(8.67804 3.10764 -8.61063e-21)
(6.31775 3.22179 2.26482e-20)
(6.36993 3.27546 4.06909e-19)
(6.41912 3.32278 4.45075e-21)
(6.46558 3.36559 -2.14979e-19)
(6.51049 3.40574 5.95865e-20)
(6.55474 3.44396 -1.46842e-20)
(6.59902 3.4805 -1.71513e-19)
(6.64392 3.5155 9.414e-20)
(6.68996 3.54894 3.51398e-19)
(6.73759 3.58069 3.67964e-20)
(6.7871 3.61043 1.41235e-19)
(6.83879 3.63789 5.59084e-19)
(6.89293 3.66273 -3.78487e-19)
(6.94965 3.6845 -7.72246e-19)
(7.009 3.70273 6.59313e-20)
(7.07095 3.71691 -2.48011e-19)
(7.1354 3.72653 6.28764e-19)
(7.20218 3.73108 -5.99009e-19)
(7.27106 3.7301 -4.1967e-19)
(7.34175 3.7232 -1.18214e-18)
(7.4139 3.70992 1.52322e-18)
(7.48453 3.69073 7.40371e-19)
(7.55113 3.66617 -7.95351e-19)
(7.61339 3.63615 -7.73757e-19)
(7.67081 3.6007 -4.45231e-19)
(7.72336 3.56012 1.56228e-18)
(7.7716 3.51504 9.56021e-19)
(7.81663 3.46651 8.61612e-19)
(7.85993 3.41593 -1.83522e-18)
(7.90317 3.36487 5.95313e-19)
(7.94789 3.31488 -7.32994e-19)
(7.99532 3.26727 4.05881e-19)
(8.04611 3.22299 -6.40884e-19)
(8.10053 3.18253 1.00184e-18)
(8.1581 3.14595 -5.09698e-19)
(8.2177 3.11303 2.17694e-19)
(8.27748 3.08307 -4.5245e-19)
(8.3365 3.05551 3.70556e-19)
(8.39247 3.02916 -2.82103e-19)
(8.44357 3.00354 -7.80748e-21)
(8.48741 2.97748 4.85675e-20)
(6.3805 3.1731 -9.1685e-20)
(6.42852 3.22077 -3.82272e-20)
(6.47396 3.26246 -4.08555e-19)
(6.51698 3.29994 5.16354e-19)
(6.55853 3.33486 -9.4702e-20)
(6.59939 3.36788 -2.60783e-20)
(6.64014 3.39925 1.21209e-19)
(6.68127 3.4291 -2.92468e-19)
(6.72323 3.45746 1.44731e-18)
(6.76638 3.48422 -2.09859e-18)
(6.81097 3.50913 1.11053e-18)
(6.85725 3.532 3.44288e-19)
(6.90543 3.55252 -4.14987e-19)
(6.95562 3.57037 -1.7509e-18)
(7.0079 3.58513 4.45249e-19)
(7.06223 3.59641 -1.03272e-18)
(7.11855 3.60378 3.32531e-18)
(7.17673 3.60679 -9.12371e-19)
(7.23656 3.60502 -1.98242e-19)
(7.29781 3.59806 6.53969e-19)
(7.3602 3.58543 -3.17262e-18)
(7.42143 3.5677 1.92542e-18)
(7.47968 3.54563 1.15608e-18)
(7.5349 3.51954 -1.08168e-18)
(7.58666 3.48975 -2.79156e-19)
(7.63458 3.45648 9.734e-19)
(7.67832 3.41991 -1.58225e-18)
(7.71772 3.38015 1.13094e-18)
(7.75275 3.33743 9.78707e-19)
(7.78365 3.29206 -7.12331e-19)
(7.81084 3.24454 -1.24252e-18)
(7.83494 3.19547 1.14118e-19)
(7.85667 3.14557 6.3301e-19)
(7.87684 3.09552 2.90107e-19)
(7.89623 3.04606 -7.46332e-19)
(7.9155 2.99801 7.82989e-19)
(7.93501 2.95198 -5.00014e-19)
(7.95545 2.90841 2.22225e-19)
(7.97693 2.86761 6.60061e-20)
(7.99965 2.83008 -1.91617e-19)
(8.02279 2.79586 -2.48447e-20)
(6.43395 3.13036 -2.51429e-19)
(6.4782 3.17279 2.83648e-19)
(6.52025 3.20961 2.29652e-19)
(6.56011 3.24249 1.33038e-19)
(6.59863 3.27291 -6.28307e-20)
(6.63644 3.30147 -1.44327e-19)
(6.67404 3.32842 4.77554e-19)
(6.71185 3.35388 -1.48468e-18)
(6.75026 3.3779 2.00245e-18)
(6.78955 3.40038 -1.02156e-18)
(6.82993 3.42115 -1.64752e-18)
(6.8716 3.44003 4.45349e-19)
(6.91472 3.45679 2.14574e-18)
(6.95941 3.47114 1.14399e-18)
(7.00568 3.48278 -2.04489e-18)
(7.05354 3.49136 1.54367e-18)
(7.10291 3.49653 -1.21151e-18)
(7.15369 3.49794 -2.94448e-19)
(7.20571 3.49521 3.49326e-19)
(7.25876 3.488 -1.64567e-18)
(7.31258 3.47587 4.12123e-18)
(7.36522 3.45929 -1.89183e-18)