# Force and moment coefficients
# dragDir     : (1.000000e+00 0.000000e+00 0.000000e+00)
# sideDir     : (0.000000e+00 0.000000e+00 -1.000000e+00)
# liftDir     : (0.000000e+00 1.000000e+00 0.000000e+00)
# rollAxis    : (1.000000e+00 0.000000e+00 0.000000e+00)
# pitchAxis   : (0.000000e+00 0.000000e+00 -1.000000e+00)
# yawAxis     : (0.000000e+00 1.000000e+00 0.000000e+00)
# magUInf     : 7.300000e+00
# lRef        : 3.190000e-01
# Aref        : 1.595000e-03
# CofR        : (0.000000e+00 0.000000e+00 0.000000e+00)
#
# Time        	Cd            	Cd(f)         	Cd(r)         	Cl            	Cl(f)         	Cl(r)         	CmPitch       	CmRoll        	CmYaw         	Cs            	Cs(f)         	Cs(r)         
1             	-1.828536e+02	2.776252e+02	-4.604788e+02	-7.848506e+02	-6.011673e+02	-1.836833e+02	-2.087420e+02	3.690520e+02	-8.598131e+01	9.070049e-17	-8.598131e+01	8.598131e+01
2             	-3.271468e+02	-4.036414e+02	7.649462e+01	5.105446e+02	-3.015736e+03	3.526280e+03	-3.271008e+03	-2.400680e+02	-1.538308e+02	4.073741e-17	-1.538308e+02	1.538308e+02
3             	4.675209e+03	-1.771463e+04	2.238984e+04	4.264442e+04	-6.358080e+04	1.062252e+05	-8.490301e+04	-2.005223e+04	2.198374e+03	5.765242e-16	2.198374e+03	-2.198374e+03
4             	3.758477e+03	-1.119554e+04	1.495401e+04	2.780569e+04	-4.077741e+04	6.858310e+04	-5.468026e+04	-1.307477e+04	1.767309e+03	6.413675e-16	1.767309e+03	-1.767309e+03
5             	7.933389e+02	3.772665e+03	-2.979326e+03	-7.179617e+03	1.636126e+04	-2.354088e+04	1.995107e+04	3.375995e+03	3.730434e+02	7.146606e-16	3.730434e+02	-3.730434e+02
6             	-4.229367e+03	3.209860e+04	-3.632796e+04	-7.276024e+04	9.076015e+04	-1.635204e+05	1.271403e+05	3.421328e+04	-1.988731e+03	-2.433615e-15	-1.988731e+03	1.988731e+03
7             	-3.511155e+03	2.996189e+04	-3.347304e+04	-6.745248e+04	6.340186e+04	-1.308543e+05	9.712810e+04	3.171747e+04	-1.651013e+03	-1.780007e-15	-1.651013e+03	1.651013e+03
8             	9.328899e+01	4.867035e+02	-3.934145e+02	-9.358588e+02	-2.121096e+04	2.027510e+04	-2.074303e+04	4.400590e+02	4.386630e+01	-2.998579e-16	4.386630e+01	-4.386630e+01
9             	8.695308e+03	-5.061909e+04	5.931440e+04	1.168959e+05	-1.466700e+05	2.635660e+05	-2.051180e+05	-5.496674e+04	4.088703e+03	4.441909e-15	4.088703e+03	-4.088703e+03
10            	1.105222e+04	-5.995786e+04	7.101009e+04	1.392626e+05	-1.527773e+05	2.920399e+05	-2.224086e+05	-6.548398e+04	5.196970e+03	7.048620e-15	5.196970e+03	-5.196970e+03
11            	4.994299e+03	-1.985787e+04	2.485217e+04	4.754167e+04	-3.963403e+04	8.717570e+04	-6.340487e+04	-2.235502e+04	2.348416e+03	2.900384e-15	2.348416e+03	-2.348416e+03
12            	-1.543819e+03	2.460985e+04	-2.615367e+04	-5.397853e+04	6.965111e+04	-1.236296e+05	9.664038e+04	2.538176e+04	-7.259336e+02	2.207371e-17	-7.259336e+02	7.259336e+02
13            	-8.548598e+03	6.540300e+04	-7.395160e+04	-1.481804e+05	1.517261e+05	-2.999065e+05	2.258163e+05	6.967730e+04	-4.019717e+03	-5.723086e-15	-4.019717e+03	4.019717e+03
14            	-8.403033e+03	5.300175e+04	-6.140478e+04	-1.216523e+05	1.177660e+05	-2.394182e+05	1.785921e+05	5.720327e+04	-3.951269e+03	-3.278746e-15	-3.951269e+03	3.951269e+03
15            	-2.119325e+03	1.198040e+03	-3.317365e+03	-4.801381e+03	-6.770701e+03	1.969319e+03	-4.370010e+03	2.257703e+03	-9.965479e+02	-8.750289e-16	-9.965479e+02	9.965479e+02
16            	4.142339e+03	-5.310302e+04	5.724536e+04	1.173371e+05	-1.223193e+05	2.396564e+05	-1.809879e+05	-5.517419e+04	1.947809e+03	-4.953370e-17	1.947809e+03	-1.947809e+03
17            	8.557946e+03	-7.341612e+04	8.197407e+04	1.652316e+05	-1.586696e+05	3.239012e+05	-2.412854e+05	-7.769510e+04	4.024113e+03	2.141623e-15	4.024113e+03	-4.024113e+03
18            	7.645233e+03	-4.245548e+04	5.010071e+04	9.841808e+04	-8.888052e+04	1.872986e+05	-1.380896e+05	-4.627809e+04	3.594937e+03	1.744079e-15	3.594937e+03	-3.594937e+03
19            	6.259347e+03	1.342336e+04	-7.164016e+03	-2.189125e+04	7.605814e+03	-2.949706e+04	1.855144e+04	1.029369e+04	2.943267e+03	2.173984e-15	2.943267e+03	-2.943267e+03
20            	1.242762e+03	4.363964e+04	-4.239688e+04	-9.148551e+04	6.463498e+04	-1.561205e+05	1.103777e+05	4.301826e+04	5.843709e+02	1.809175e-15	5.843709e+02	-5.843709e+02
21            	-3.761804e+03	3.077185e+04	-3.453365e+04	-6.944152e+04	5.795934e+04	-1.274009e+05	9.268010e+04	3.265275e+04	-1.768873e+03	4.349365e-16	-1.768873e+03	1.768873e+03
22            	-1.018604e+04	-6.886368e+03	-3.299674e+03	3.813851e+03	2.368812e+04	-1.987427e+04	2.178119e+04	-1.793347e+03	-4.789675e+03	-1.936365e-15	-4.789675e+03	4.789675e+03
23            	-8.480332e+03	-3.016815e+04	2.168782e+04	5.514019e+04	-1.269137e+04	6.783156e+04	-4.026146e+04	-2.592799e+04	-3.987617e+03	-1.785119e-15	-3.987617e+03	3.987617e+03
24            	-2.410082e+03	-2.983487e+04	2.742479e+04	6.088610e+04	-3.620818e+04	9.709428e+04	-6.665123e+04	-2.862983e+04	-1.133267e+03	9.583133e-17	-1.133267e+03	1.133267e+03
25            	5.777740e+03	-1.066675e+04	1.644449e+04	2.882828e+04	-3.658517e+04	6.541346e+04	-5.099931e+04	-1.355562e+04	2.716806e+03	2.644355e-15	2.716806e+03	-2.716806e+03
26            	1.101578e+04	1.103947e+04	-2.369606e+01	-1.176384e+04	-1.960766e+04	7.843820e+03	-1.372574e+04	5.531585e+03	5.179833e+03	4.002175e-15	5.179833e+03	-5.179833e+03
27            	4.139068e+03	1.779211e+04	-1.365304e+04	-3.343667e+04	7.529356e+03	-4.096603e+04	2.424769e+04	1.572257e+04	1.946270e+03	2.116597e-15	1.946270e+03	-1.946270e+03
28            	-2.531091e+03	1.093990e+04	-1.347099e+04	-2.595691e+04	1.892446e+04	-4.488136e+04	3.190291e+04	1.220544e+04	-1.190168e+03	3.379819e-17	-1.190168e+03	1.190168e+03
29            	-4.373924e+03	-7.373455e+02	-3.636579e+03	-3.082851e+03	1.406419e+04	-1.714704e+04	1.560562e+04	1.449617e+03	-2.056704e+03	-1.322624e-15	-2.056704e+03	2.056704e+03
30            	-2.465159e+03	-9.096783e+03	6.631624e+03	1.672454e+04	-2.318289e+03	1.904283e+04	-1.068056e+04	-7.864203e+03	-1.159166e+03	-1.342821e-15	-1.159166e+03	1.159166e+03
31            	3.828625e+02	-9.592054e+03	9.974917e+03	2.080621e+04	-1.530173e+04	3.610795e+04	-2.570484e+04	-9.783486e+03	1.800294e+02	-4.142270e-16	1.800294e+02	-1.800294e+02
32            	1.566766e+03	-4.359712e+03	5.926478e+03	1.093765e+04	-1.338666e+04	2.432431e+04	-1.885548e+04	-5.143095e+03	7.367239e+02	3.434771e-16	7.367239e+02	-7.367239e+02
33            	1.301444e+03	3.834783e+02	9.179660e+02	5.683386e+02	-5.739555e+03	6.307894e+03	-6.023725e+03	-2.672439e+02	6.119644e+02	5.803287e-16	6.119644e+02	-6.119644e+02
34            	2.576215e+02	2.586029e+03	-2.328408e+03	-5.225684e+03	1.134149e+03	-6.359834e+03	3.746991e+03	2.457218e+03	1.211386e+02	4.201120e-16	1.211386e+02	-1.211386e+02
35            	-6.655366e+02	1.127424e+03	-1.792961e+03	-3.105343e+03	2.237284e+03	-5.342626e+03	3.789955e+03	1.460193e+03	-3.129482e+02	1.071270e-16	-3.129482e+02	3.129482e+02
36            	-1.235958e+03	-1.719304e+03	4.833456e+02	2.342151e+03	3.123939e+02	2.029757e+03	-8.586814e+02	-1.101325e+03	-5.811716e+02	-2.577063e-16	-5.811716e+02	5.811716e+02
37            	-1.289350e+03	-3.363506e+03	2.074156e+03	5.782047e+03	-1.631329e+03	7.413376e+03	-4.522353e+03	-2.718831e+03	-6.062777e+02	-4.693849e-16	-6.062777e+02	6.062777e+02
38            	-9.673113e+02	-3.187331e+03	2.220019e+03	5.749816e+03	-1.956112e+03	7.705928e+03	-4.831020e+03	-2.703675e+03	-4.548486e+02	-4.487859e-16	-4.548486e+02	4.548486e+02
39            	-5.310299e+02	-2.123022e+03	1.591992e+03	3.950299e+03	-1.275408e+03	5.225707e+03	-3.250557e+03	-1.857507e+03	-2.497006e+02	-2.998487e-16	-2.497006e+02	2.497006e+02
40            	-3.260019e+02	-1.137180e+03	8.111779e+02	2.071754e+03	-2.978678e+02	2.369621e+03	-1.333745e+03	-9.741788e+02	-1.532924e+02	-1.803347e-16	-1.532924e+02	1.532924e+02
41            	-3.960532e+02	-6.635217e+02	2.674684e+02	9.899528e+02	5.588480e+02	4.311048e+02	6.387159e+01	-4.654950e+02	-1.862319e+02	-1.546987e-16	-1.862319e+02	1.862319e+02
42            	-5.900648e+02	-6.784994e+02	8.843458e+01	8.155064e+02	1.118760e+03	-3.032537e+02	7.110069e+02	-3.834670e+02	-2.774599e+02	-2.127435e-16	-2.774599e+02	2.774599e+02
43            	-6.954423e+02	-9.008332e+02	2.053909e+02	1.176285e+03	1.142614e+03	3.367069e+01	5.544718e+02	-5.531120e+02	-3.270105e+02	-2.743114e-16	-3.270105e+02	3.270105e+02
44            	-6.639815e+02	-1.117517e+03	4.535355e+02	1.670553e+03	7.080353e+02	9.625172e+02	-1.272409e+02	-7.855263e+02	-3.122170e+02	-2.923955e-16	-3.122170e+02	3.122170e+02
45            	-4.977208e+02	-1.237205e+03	7.394843e+02	2.101880e+03	3.341639e+01	2.068463e+03	-1.017523e+03	-9.883447e+02	-2.340380e+02	-2.564762e-16	-2.340380e+02	2.340380e+02
46            	-3.458825e+02	-1.129464e+03	7.835810e+02	2.034204e+03	-2.241136e+02	2.258318e+03	-1.241216e+03	-9.565223e+02	-1.626407e+02	-2.079911e-16	-1.626407e+02	1.626407e+02
47            	-2.518555e+02	-8.384105e+02	5.865551e+02	1.515213e+03	-1.202493e+02	1.635463e+03	-8.778560e+02	-7.124828e+02	-1.184273e+02	-1.594587e-16	-1.184273e+02	1.184273e+02
48            	-2.159133e+02	-4.008910e+02	1.849776e+02	6.229736e+02	3.361776e+02	2.867960e+02	2.469079e+01	-2.929343e+02	-1.015266e+02	-1.159390e-16	-1.015266e+02	1.015266e+02
49            	-2.122597e+02	-8.658254e+01	-1.256772e+02	-4.157061e+01	7.753695e+02	-8.169401e+02	7.961548e+02	1.954731e+01	-9.980863e+01	-9.001352e-17	-9.980863e+01	9.980863e+01
50            	-2.052663e+02	-4.255574e+00	-2.010107e+02	-2.092163e+02	9.687905e+02	-1.178007e+03	1.073399e+03	9.837757e+01	-9.652020e+01	-8.116273e-17	-9.652020e+01	9.652020e+01
51            	-1.862995e+02	-2.840536e+01	-1.578941e+02	-1.376897e+02	1.031417e+03	-1.169107e+03	1.100262e+03	6.474439e+01	-8.760165e+01	-7.794814e-17	-8.760165e+01	8.760165e+01
52            	-1.615270e+02	-3.900315e+01	-1.225238e+02	-8.881032e+01	1.090286e+03	-1.179096e+03	1.134691e+03	4.176034e+01	-7.595312e+01	-7.174878e-17	-7.595312e+01	7.595312e+01
53            	-1.305902e+02	2.031941e+00	-1.326221e+02	-1.431822e+02	1.146154e+03	-1.289336e+03	1.217745e+03	6.732703e+01	-6.140604e+01	-5.806276e-17	-6.140604e+01	6.140604e+01
54            	-1.129197e+02	5.069089e+01	-1.636106e+02	-2.278739e+02	1.163332e+03	-1.391206e+03	1.277269e+03	1.071507e+02	-5.309704e+01	-4.876330e-17	-5.309704e+01	5.309704e+01
55            	-9.662344e+01	1.286590e+02	-2.252825e+02	-3.763578e+02	1.181987e+03	-1.558345e+03	1.370166e+03	1.769707e+02	-4.543422e+01	-3.941568e-17	-4.543422e+01	4.543422e+01
56            	-9.423621e+01	2.276653e+02	-3.219015e+02	-5.843727e+02	1.233502e+03	-1.817875e+03	1.525689e+03	2.747834e+02	-4.431170e+01	-3.350382e-17	-4.431170e+01	4.431170e+01
57            	-1.093501e+02	3.224588e+02	-4.318089e+02	-8.020380e+02	1.323875e+03	-2.125913e+03	1.724894e+03	3.771339e+02	-5.141855e+01	-3.201711e-17	-5.141855e+01	5.141855e+01
58            	-1.331790e+02	3.864670e+02	-5.196460e+02	-9.635001e+02	1.419094e+03	-2.382594e+03	1.900844e+03	4.530565e+02	-6.262337e+01	-3.507348e-17	-6.262337e+01	6.262337e+01
59            	-1.588854e+02	4.015045e+02	-5.603899e+02	-1.022814e+03	1.467220e+03	-2.490035e+03	1.978627e+03	4.809472e+02	-7.471102e+01	-4.209332e-17	-7.471102e+01	7.471102e+01
60            	-1.800566e+02	3.641101e+02	-5.441667e+02	-9.658010e+02	1.426808e+03	-2.392609e+03	1.909708e+03	4.541384e+02	-8.466612e+01	-5.139479e-17	-8.466612e+01	8.466612e+01
61            	-1.845446e+02	2.387488e+02	-4.232935e+02	-7.039716e+02	1.156703e+03	-1.860675e+03	1.508689e+03	3.310211e+02	-8.677647e+01	-5.958056e-17	-8.677647e+01	8.677647e+01
62            	-1.676220e+02	1.849240e+02	-3.525460e+02	-5.715098e+02	9.897670e+02	-1.561277e+03	1.275522e+03	2.687350e+02	-7.881914e+01	-5.653788e-17	-7.881914e+01	7.881914e+01
63            	-1.394414e+02	1.507263e+02	-2.901677e+02	-4.688173e+02	7.928521e+02	-1.261669e+03	1.027261e+03	2.204470e+02	-6.556805e+01	-4.905589e-17	-6.556805e+01	6.556805e+01
64            	-9.301760e+01	1.321391e+02	-2.251567e+02	-3.799246e+02	4.681336e+02	-8.480582e+02	6.580959e+02	1.786479e+02	-4.373868e+01	-3.221944e-17	-4.373868e+01	4.373868e+01
65            	-8.308642e+01	1.612950e+02	-2.443814e+02	-4.313693e+02	4.378834e+02	-8.692527e+02	6.535681e+02	2.028382e+02	-3.906885e+01	-2.764533e-17	-3.906885e+01	3.906885e+01
66            	-8.035594e+01	2.137541e+02	-2.941101e+02	-5.400290e+02	4.944931e+02	-1.034522e+03	7.645076e+02	2.539321e+02	-3.778493e+01	-2.446057e-17	-3.778493e+01	3.778493e+01
67            	-7.951216e+01	3.037778e+02	-3.832900e+02	-7.305821e+02	6.514395e+02	-1.382022e+03	1.016731e+03	3.435339e+02	-3.738816e+01	-2.000688e-17	-3.738816e+01	3.738816e+01
68            	-7.787224e+01	3.282550e+02	-4.061272e+02	-7.808931e+02	7.090560e+02	-1.489949e+03	1.099503e+03	3.671911e+02	-3.661704e+01	-1.856597e-17	-3.661704e+01	3.661704e+01
69            	-7.193052e+01	3.207926e+02	-3.927231e+02	-7.587050e+02	7.139371e+02	-1.472642e+03	1.093290e+03	3.567578e+02	-3.382313e+01	-1.737083e-17	-3.382313e+01	3.382313e+01
70            	-6.259801e+01	2.922467e+02	-3.548447e+02	-6.880738e+02	6.795633e+02	-1.367637e+03	1.023600e+03	3.235457e+02	-2.943480e+01	-1.712450e-17	-2.943480e+01	2.943480e+01
71            	-5.324419e+01	2.631633e+02	-3.164075e+02	-6.162770e+02	6.364097e+02	-1.252687e+03	9.445482e+02	2.897854e+02	-2.503645e+01	-1.691749e-17	-2.503645e+01	2.503645e+01
72            	-4.710948e+01	2.499518e+02	-2.970613e+02	-5.816572e+02	6.162514e+02	-1.197909e+03	9.070800e+02	2.735065e+02	-2.215179e+01	-1.705690e-17	-2.215179e+01	2.215179e+01
73            	-4.532353e+01	2.530725e+02	-2.983961e+02	-5.863949e+02	6.282150e+02	-1.214610e+03	9.214124e+02	2.757343e+02	-2.131201e+01	-1.738545e-17	-2.131201e+01	2.131201e+01
74            	-4.858980e+01	2.673052e+02	-3.158950e+02	-6.201362e+02	6.724738e+02	-1.292610e+03	9.825419e+02	2.916001e+02	-2.284787e+01	-1.776886e-17	-2.284787e+01	2.284787e+01
75            	-6.311135e+01	3.069492e+02	-3.700606e+02	-7.198871e+02	8.039733e+02	-1.523860e+03	1.163917e+03	3.385049e+02	-2.967618e+01	-1.899160e-17	-2.967618e+01	2.967618e+01
76            	-6.609367e+01	3.126670e+02	-3.787606e+02	-7.352180e+02	8.322871e+02	-1.567505e+03	1.199896e+03	3.457138e+02	-3.107853e+01	-1.832645e-17	-3.107853e+01	3.107853e+01
77            	-7.030101e+01	3.256437e+02	-3.959447e+02	-7.672891e+02	8.947546e+02	-1.662044e+03	1.278399e+03	3.607942e+02	-3.305690e+01	-1.574635e-17	-3.305690e+01	3.305690e+01
78            	-7.094815e+01	3.260438e+02	-3.969920e+02	-7.688280e+02	9.137969e+02	-1.682625e+03	1.298211e+03	3.615179e+02	-3.336120e+01	-1.483957e-17	-3.336120e+01	3.336120e+01
79            	-7.179224e+01	3.304825e+02	-4.022747e+02	-7.791651e+02	9.422600e+02	-1.721425e+03	1.331843e+03	3.663786e+02	-3.375811e+01	-1.428745e-17	-3.375811e+01	3.375811e+01
80            	-7.240001e+01	3.372188e+02	-4.096188e+02	-7.941373e+02	9.702104e+02	-1.764348e+03	1.367279e+03	3.734188e+02	-3.404389e+01	-1.385020e-17	-3.404389e+01	3.404389e+01
81            	-7.060510e+01	3.468275e+02	-4.174326e+02	-8.126632e+02	9.911035e+02	-1.803767e+03	1.397435e+03	3.821301e+02	-3.319989e+01	-1.238381e-17	-3.319989e+01	3.319989e+01
82            	-7.051470e+01	3.526237e+02	-4.231384e+02	-8.248937e+02	9.956747e+02	-1.820568e+03	1.408122e+03	3.878811e+02	-3.315738e+01	-1.211504e-17	-3.315738e+01	3.315738e+01
83            	-6.967833e+01	3.589028e+02	-4.285812e+02	-8.373580e+02	9.980582e+02	-1.835416e+03	1.416737e+03	3.937420e+02	-3.276410e+01	-1.137331e-17	-3.276410e+01	3.276410e+01
84            	-6.480344e+01	3.731344e+02	-4.379379e+02	-8.624402e+02	1.011974e+03	-1.874414e+03	1.443194e+03	4.055361e+02	-3.047184e+01	-8.080927e-18	-3.047184e+01	3.047184e+01
85            	-6.203869e+01	3.760339e+02	-4.380726e+02	-8.656666e+02	1.009358e+03	-1.875024e+03	1.442191e+03	4.070533e+02	-2.917180e+01	-6.528984e-18	-2.917180e+01	2.917180e+01
86            	-5.424308e+01	3.753221e+02	-4.295651e+02	-8.558634e+02	9.882614e+02	-1.844125e+03	1.416193e+03	4.024436e+02	-2.550615e+01	-2.829957e-18	-2.550615e+01	2.550615e+01
87            	-5.078183e+01	3.682873e+02	-4.190691e+02	-8.372223e+02	9.597932e+02	-1.797016e+03	1.378404e+03	3.936782e+02	-2.387860e+01	-1.625451e-18	-2.387860e+01	2.387860e+01
88            	-4.184014e+01	3.478788e+02	-3.897190e+02	-7.843123e+02	8.782058e+02	-1.662518e+03	1.270362e+03	3.687989e+02	-1.967405e+01	7.292574e-19	-1.967405e+01	1.967405e+01
89            	-3.436647e+01	3.281038e+02	-3.624703e+02	-7.343104e+02	7.980227e+02	-1.532333e+03	1.165178e+03	3.452870e+02	-1.615978e+01	2.033401e-18	-1.615978e+01	1.615978e+01
90            	-2.826466e+01	3.144611e+02	-3.427258e+02	-6.988088e+02	7.377923e+02	-1.436601e+03	1.087197e+03	3.285935e+02	-1.329059e+01	2.916958e-18	-1.329059e+01	1.329059e+01
91            	-2.156003e+01	3.054136e+02	-3.269737e+02	-6.724385e+02	6.905262e+02	-1.362965e+03	1.026745e+03	3.161937e+02	-1.013794e+01	4.204615e-18	-1.013794e+01	1.013794e+01
92            	-1.340613e+01	2.965303e+02	-3.099364e+02	-6.448763e+02	6.421198e+02	-1.286996e+03	9.645580e+02	3.032333e+02	-6.303824e+00	6.268982e-18	-6.303824e+00	6.303824e+00
93            	-4.523897e+00	2.831583e+02	-2.876822e+02	-6.069938e+02	5.817559e+02	-1.188750e+03	8.852528e+02	2.854203e+02	-2.127224e+00	8.843361e-18	-2.127224e+00	2.127224e+00
94            	3.405747e+00	2.631939e+02	-2.597881e+02	-5.561042e+02	5.079371e+02	-1.064041e+03	7.859892e+02	2.614910e+02	1.601448e+00	1.149065e-17	1.601448e+00	-1.601448e+00
95            	9.094896e+00	2.384604e+02	-2.293655e+02	-4.974548e+02	4.287824e+02	-9.262372e+02	6.775098e+02	2.339129e+02	4.276597e+00	1.362548e-17	4.276597e+00	-4.276597e+00
96            	1.262139e+01	2.138608e+02	-2.012394e+02	-4.413899e+02	3.574062e+02	-7.987962e+02	5.781012e+02	2.075501e+02	5.934824e+00	1.493477e-17	5.934824e+00	-5.934824e+00
97            	1.489096e+01	1.923905e+02	-1.774996e+02	-3.933165e+02	2.993599e+02	-6.926764e+02	4.960181e+02	1.849450e+02	7.002018e+00	1.545777e-17	7.002018e+00	-7.002018e+00
98            	1.646656e+01	1.733345e+02	-1.568680e+02	-3.511154e+02	2.512895e+02	-6.024049e+02	4.268472e+02	1.651013e+02	7.742895e+00	1.519743e-17	7.742895e+00	-7.742895e+00
99            	1.727481e+01	1.561697e+02	-1.388949e+02	-3.137521e+02	2.116668e+02	-5.254189e+02	3.685428e+02	1.475323e+02	8.122953e+00	1.422494e-17	8.122953e+00	-8.122953e+00
100           	1.700401e+01	1.423415e+02	-1.253375e+02	-2.846321e+02	1.834820e+02	-4.681140e+02	3.257980e+02	1.338395e+02	7.995614e+00	1.279727e-17	7.995614e+00	-7.995614e+00
101           	1.542819e+01	1.344473e+02	-1.190191e+02	-2.695193e+02	1.710070e+02	-4.405263e+02	3.057666e+02	1.267332e+02	7.254632e+00	1.123763e-17	7.254632e+00	-7.254632e+00
102           	1.271653e+01	1.340264e+02	-1.213099e+02	-2.715076e+02	1.752214e+02	-4.467290e+02	3.109752e+02	1.276681e+02	5.979559e+00	9.745167e-18	5.979559e+00	-5.979559e+00
103           	9.620755e+00	1.387895e+02	-1.291688e+02	-2.849290e+02	1.891649e+02	-4.740939e+02	3.316294e+02	1.339792e+02	4.523866e+00	8.467917e-18	4.523866e+00	-4.523866e+00
104           	6.670923e+00	1.437057e+02	-1.370348e+02	-2.985207e+02	2.019912e+02	-5.005119e+02	3.512516e+02	1.403703e+02	3.136797e+00	7.293241e-18	3.136797e+00	-3.136797e+00
105           	3.804174e+00	1.464185e+02	-1.426144e+02	-3.073383e+02	2.101096e+02	-5.174479e+02	3.637787e+02	1.445164e+02	1.788797e+00	5.845315e-18	1.788797e+00	-1.788797e+00
106           	8.384680e-01	1.481696e+02	-1.473311e+02	-3.142158e+02	2.178076e+02	-5.320234e+02	3.749155e+02	1.477504e+02	3.942640e-01	3.999927e-18	3.942640e-01	-3.942640e-01
107           	-2.110902e+00	1.517392e+02	-1.538501e+02	-3.249434e+02	2.315757e+02	-5.565191e+02	3.940474e+02	1.527947e+02	-9.925872e-01	2.049780e-18	-9.925872e-01	9.925872e-01
108           	-5.042133e+00	1.587405e+02	-1.637827e+02	-3.429497e+02	2.543274e+02	-5.972771e+02	4.258023e+02	1.612616e+02	-2.370909e+00	1.739374e-19	-2.370909e+00	2.370909e+00
109           	-7.366051e+00	1.661409e+02	-1.735070e+02	-3.611589e+02	2.782582e+02	-6.394171e+02	4.588377e+02	1.698240e+02	-3.463660e+00	-1.073537e-18	-3.463660e+00	3.463660e+00
110           	-9.970294e+00	1.741239e+02	-1.840942e+02	-3.809052e+02	3.045005e+02	-6.854056e+02	4.949530e+02	1.791090e+02	-4.688226e+00	-2.207739e-18	-4.688226e+00	4.688226e+00
111           	-1.164369e+01	1.791608e+02	-1.908045e+02	-3.933963e+02	3.215814e+02	-7.149777e+02	5.182796e+02	1.849826e+02	-5.475090e+00	-2.751764e-18	-5.475090e+00	5.475090e+00
112           	-1.606057e+01	1.929480e+02	-2.090085e+02	-4.274138e+02	3.653926e+02	-7.928064e+02	5.790995e+02	2.009783e+02	-7.551990e+00	-4.552349e-18	-7.551990e+00	7.551990e+00
113           	-1.905902e+01	2.056721e+02	-2.247311e+02	-4.576620e+02	4.039263e+02	-8.615883e+02	6.327573e+02	2.152016e+02	-8.961921e+00	-5.647092e-18	-8.961921e+00	8.961921e+00
114           	-1.967365e+01	2.100213e+02	-2.296949e+02	-4.675649e+02	4.185185e+02	-8.860834e+02	6.523009e+02	2.198581e+02	-9.250932e+00	-5.621505e-18	-9.250932e+00	9.250932e+00
115           	-2.049753e+01	2.121543e+02	-2.326519e+02	-4.729773e+02	4.323977e+02	-9.053750e+02	6.688864e+02	2.224031e+02	-9.638339e+00	-5.650560e-18	-9.638339e+00	9.638339e+00
116           	-2.267881e+01	2.114640e+02	-2.341428e+02	-4.738286e+02	4.514084e+02	-9.252370e+02	6.883227e+02	2.228034e+02	-1.066402e+01	-6.209375e-18	-1.066402e+01	1.066402e+01
117           	-2.437860e+01	2.104079e+02	-2.347865e+02	-4.733901e+02	4.662455e+02	-9.396356e+02	7.029405e+02	2.225972e+02	-1.146329e+01	-6.684433e-18	-1.146329e+01	1.146329e+01
118           	-2.495232e+01	2.108627e+02	-2.358150e+02	-4.749673e+02	4.747166e+02	-9.496840e+02	7.122003e+02	2.233389e+02	-1.173306e+01	-6.870959e-18	-1.173306e+01	1.173306e+01
119           	-2.595916e+01	2.110598e+02	-2.370189e+02	-4.764570e+02	4.834856e+02	-9.599426e+02	7.217141e+02	2.240394e+02	-1.220650e+01	-7.186698e-18	-1.220650e+01	1.220650e+01
120           	-2.803160e+01	2.101730e+02	-2.382046e+02	-4.767748e+02	4.965673e+02	-9.733421e+02	7.349547e+02	2.241888e+02	-1.318100e+01	-7.707644e-18	-1.318100e+01	1.318100e+01
121           	-2.929512e+01	2.092615e+02	-2.385566e+02	-4.761798e+02	5.085584e+02	-9.847382e+02	7.466483e+02	2.239090e+02	-1.377513e+01	-7.988020e-18	-1.377513e+01	1.377513e+01
122           	-2.972741e+01	2.081285e+02	-2.378559e+02	-4.742300e+02	5.156540e+02	-9.898840e+02	7.527690e+02	2.229922e+02	-1.397840e+01	-8.164165e-18	-1.397840e+01	1.397840e+01
123           	-3.023226e+01	2.049596e+02	-2.351919e+02	-4.680278e+02	5.239210e+02	-9.919488e+02	7.579349e+02	2.200758e+02	-1.421580e+01	-8.239970e-18	-1.421580e+01	1.421580e+01
124           	-3.056515e+01	2.034869e+02	-2.340521e+02	-4.652498e+02	5.330674e+02	-9.983172e+02	7.656923e+02	2.187695e+02	-1.437233e+01	-8.325381e-18	-1.437233e+01	1.437233e+01
125           	-3.090277e+01	2.038983e+02	-2.348011e+02	-4.664838e+02	5.424129e+02	-1.008897e+03	7.756548e+02	2.193497e+02	-1.453108e+01	-8.467687e-18	-1.453108e+01	1.453108e+01
126           	-3.132394e+01	2.050298e+02	-2.363538e+02	-4.693379e+02	5.507363e+02	-1.020074e+03	7.854052e+02	2.206918e+02	-1.472913e+01	-8.669559e-18	-1.472913e+01	1.472913e+01
127           	-3.169047e+01	2.057602e+02	-2.374507e+02	-4.712809e+02	5.578714e+02	-1.029152e+03	7.935119e+02	2.216054e+02	-1.490148e+01	-8.885000e-18	-1.490148e+01	1.490148e+01
128           	-3.173118e+01	2.061682e+02	-2.378993e+02	-4.721918e+02	5.654553e+02	-1.037647e+03	8.015512e+02	2.220338e+02	-1.492062e+01	-8.984411e-18	-1.492062e+01	1.492062e+01
129           	-3.134434e+01	2.068908e+02	-2.382352e+02	-4.733173e+02	5.745900e+02	-1.047907e+03	8.112486e+02	2.225630e+02	-1.473872e+01	-8.927290e-18	-1.473872e+01	1.473872e+01
130           	-3.065122e+01	2.084586e+02	-2.391098e+02	-4.759144e+02	5.853766e+02	-1.061291e+03	8.233338e+02	2.237842e+02	-1.441280e+01	-8.756696e-18	-1.441280e+01	1.441280e+01
131           	-2.984830e+01	2.109489e+02	-2.407972e+02	-4.803568e+02	5.975493e+02	-1.077906e+03	8.377276e+02	2.258731e+02	-1.403525e+01	-8.545027e-18	-1.403525e+01	1.403525e+01
132           	-2.927321e+01	2.134650e+02	-2.427382e+02	-4.850961e+02	6.081985e+02	-1.093295e+03	8.507465e+02	2.281016e+02	-1.376483e+01	-8.433620e-18	-1.376483e+01	1.376483e+01
133           	-2.870655e+01	2.156952e+02	-2.444018e+02	-4.892365e+02	6.176286e+02	-1.106865e+03	8.622468e+02	2.300485e+02	-1.349838e+01	-8.358346e-18	-1.349838e+01	1.349838e+01
134           	-2.788029e+01	2.178754e+02	-2.457557e+02	-4.929944e+02	6.276056e+02	-1.120600e+03	8.741028e+02	2.318155e+02	-1.310985e+01	-8.218763e-18	-1.310985e+01	1.310985e+01
135           	-2.675238e+01	2.204423e+02	-2.471946e+02	-4.972539e+02	6.397531e+02	-1.137007e+03	8.883801e+02	2.338184e+02	-1.257949e+01	-7.988860e-18	-1.257949e+01	1.257949e+01
136           	-2.541106e+01	2.235526e+02	-2.489636e+02	-5.024422e+02	6.542127e+02	-1.156655e+03	9.054338e+02	2.362581e+02	-1.194877e+01	-7.683545e-18	-1.194877e+01	1.194877e+01
137           	-2.400073e+01	2.270091e+02	-2.510098e+02	-5.082934e+02	6.698480e+02	-1.178141e+03	9.239947e+02	2.390094e+02	-1.128561e+01	-7.315429e-18	-1.128561e+01	1.128561e+01
138           	-2.257985e+01	2.303691e+02	-2.529489e+02	-5.139281e+02	6.851529e+02	-1.199081e+03	9.421170e+02	2.416590e+02	-1.061749e+01	-6.897988e-18	-1.061749e+01	1.061749e+01
139           	-2.111196e+01	2.334048e+02	-2.545167e+02	-5.188232e+02	6.998033e+02	-1.218626e+03	9.592149e+02	2.439608e+02	-9.927256e+00	-6.436949e-18	-9.927256e+00	9.927256e+00
140           	-1.950311e+01	2.363047e+02	-2.558079e+02	-5.232797e+02	7.146577e+02	-1.237937e+03	9.762976e+02	2.460563e+02	-9.170742e+00	-5.923914e-18	-9.170742e+00	9.170742e+00
141           	-1.779183e+01	2.390077e+02	-2.567995e+02	-5.272083e+02	7.294741e+02	-1.256682e+03	9.930782e+02	2.479036e+02	-8.366065e+00	-5.362039e-18	-8.366065e+00	8.366065e+00
142           	-1.594600e+01	2.418143e+02	-2.577603e+02	-5.312142e+02	7.448444e+02	-1.276059e+03	1.010452e+03	2.497873e+02	-7.498121e+00	-4.757146e-18	-7.498121e+00	7.498121e+00
143           	-1.406183e+01	2.446074e+02	-2.586692e+02	-5.351508e+02	7.599554e+02	-1.295106e+03	1.027531e+03	2.516383e+02	-6.612148e+00	-4.108320e-18	-6.612148e+00	6.612148e+00
144           	-1.219599e+01	2.472690e+02	-2.594650e+02	-5.388271e+02	7.743067e+02	-1.313134e+03	1.043720e+03	2.533670e+02	-5.734790e+00	-3.394601e-18	-5.734790e+00	5.734790e+00
145           	-1.040055e+01	2.497679e+02	-2.601685e+02	-5.422323e+02	7.877358e+02	-1.329968e+03	1.058852e+03	2.549682e+02	-4.890542e+00	-2.615200e-18	-4.890542e+00	4.890542e+00
146           	-8.616867e+00	2.526436e+02	-2.612605e+02	-5.464514e+02	8.018513e+02	-1.348303e+03	1.075077e+03	2.569521e+02	-4.051818e+00	-1.779436e-18	-4.051818e+00	4.051818e+00
147           	-6.769772e+00	2.566698e+02	-2.634396e+02	-5.530497e+02	8.187770e+02	-1.371827e+03	1.095302e+03	2.600547e+02	-3.183279e+00	-9.130702e-19	-3.183279e+00	3.183279e+00
148           	-4.845718e+00	2.623532e+02	-2.671989e+02	-5.630904e+02	8.395520e+02	-1.402642e+03	1.121097e+03	2.647760e+02	-2.278551e+00	-5.895177e-20	-2.278551e+00	2.278551e+00
149           	-2.957751e+00	2.692596e+02	-2.722173e+02	-5.757704e+02	8.623563e+02	-1.438127e+03	1.150242e+03	2.707384e+02	-1.390792e+00	7.218342e-19	-1.390792e+00	1.390792e+00
150           	-1.247336e+00	2.761761e+02	-2.774235e+02	-5.886609e+02	8.835614e+02	-1.472222e+03	1.177892e+03	2.767998e+02	-5.865217e-01	1.392676e-18	-5.865217e-01	5.865217e-01
151           	2.394188e-01	2.820120e+02	-2.817725e+02	-5.994909e+02	9.004747e+02	-1.499966e+03	1.200220e+03	2.818923e+02	1.125794e-01	1.993610e-18	1.125794e-01	-1.125794e-01
152           	1.486627e+00	2.862727e+02	-2.847861e+02	-6.072258e+02	9.123836e+02	-1.519609e+03	1.215996e+03	2.855294e+02	6.990409e-01	2.541318e-18	6.990409e-01	-6.990409e-01
153           	2.616955e+00	2.901082e+02	-2.874913e+02	-6.141808e+02	9.225492e+02	-1.536730e+03	1.229640e+03	2.887998e+02	1.230543e+00	3.078416e-18	1.230543e+00	-1.230543e+00
154           	3.660644e+00	2.946294e+02	-2.909687e+02	-6.226860e+02	9.334940e+02	-1.556180e+03	1.244837e+03	2.927991e+02	1.721306e+00	3.594577e-18	1.721306e+00	-1.721306e+00
155           	4.564138e+00	3.004918e+02	-2.959277e+02	-6.341927e+02	9.462183e+02	-1.580411e+03	1.263315e+03	2.982097e+02	2.146146e+00	4.033548e-18	2.146146e+00	-2.146146e+00
156           	5.113742e+00	3.065921e+02	-3.014784e+02	-6.465816e+02	9.576680e+02	-1.604250e+03	1.280959e+03	3.040352e+02	2.404581e+00	4.301813e-18	2.404581e+00	-2.404581e+00
157           	5.338587e+00	3.121755e+02	-3.068369e+02	-6.582165e+02	9.661080e+02	-1.624325e+03	1.295216e+03	3.095062e+02	2.510307e+00	4.391226e-18	2.510307e+00	-2.510307e+00
158           	5.324001e+00	3.168292e+02	-3.115052e+02	-6.681290e+02	9.709797e+02	-1.639109e+03	1.305044e+03	3.141672e+02	2.503449e+00	4.325781e-18	2.503449e+00	-2.503449e+00
159           	5.110092e+00	3.206185e+02	-3.155084e+02	-6.764149e+02	9.727727e+02	-1.649188e+03	1.310980e+03	3.180635e+02	2.402864e+00	4.157783e-18	2.402864e+00	-2.402864e+00
160           	4.668151e+00	3.238767e+02	-3.192085e+02	-6.838139e+02	9.722990e+02	-1.656113e+03	1.314206e+03	3.215426e+02	2.195055e+00	3.887236e-18	2.195055e+00	-2.195055e+00
161           	3.942106e+00	3.270849e+02	-3.231428e+02	-6.914087e+02	9.705195e+02	-1.661928e+03	1.316224e+03	3.251138e+02	1.853655e+00	3.525659e-18	1.853655e+00	-1.853655e+00
162           	2.895766e+00	3.304219e+02	-3.275261e+02	-6.996181e+02	9.678886e+02	-1.667507e+03	1.317698e+03	3.289740e+02	1.361645e+00	3.074367e-18	1.361645e+00	-1.361645e+00
163           	1.500997e+00	3.336560e+02	-3.321550e+02	-7.079790e+02	9.642215e+02	-1.672200e+03	1.318211e+03	3.329055e+02	7.057980e-01	2.547882e-18	7.057980e-01	-7.057980e-01
164           	-2.530865e-01	3.362060e+02	-3.364590e+02	-7.152671e+02	9.587195e+02	-1.673987e+03	1.316353e+03	3.363325e+02	-1.190062e-01	1.949469e-18	-1.190062e-01	1.190062e-01
165           	-2.356041e+00	3.373164e+02	-3.396724e+02	-7.198647e+02	9.502533e+02	-1.670118e+03	1.310186e+03	3.384944e+02	-1.107856e+00	1.276184e-18	-1.107856e+00	1.107856e+00