# Force and moment coefficients
# dragDir     : (1.000000e+00 0.000000e+00 0.000000e+00)
# sideDir     : (0.000000e+00 0.000000e+00 -1.000000e+00)
# liftDir     : (0.000000e+00 1.000000e+00 0.000000e+00)
# rollAxis    : (1.000000e+00 0.000000e+00 0.000000e+00)
# pitchAxis   : (0.000000e+00 0.000000e+00 -1.000000e+00)
# yawAxis     : (0.000000e+00 1.000000e+00 0.000000e+00)
# magUInf     : 7.300000e+00
# lRef        : 3.190000e-01
# Aref        : 1.595000e-03
# CofR        : (0.000000e+00 0.000000e+00 0.000000e+00)
#
# Time        	Cd            	Cd(f)         	Cd(r)         	Cl            	Cl(f)         	Cl(r)         	CmPitch       	CmRoll        	CmYaw         	Cs            	Cs(f)         	Cs(r)         
1             	-3.210992e+02	7.540003e+02	-1.075099e+03	-1.944943e+03	2.439717e+03	-4.384660e+03	3.412189e+03	9.145499e+02	-1.509871e+02	3.407482e-17	-1.509871e+02	1.509871e+02
2             	-4.419976e+02	2.742085e+03	-3.184083e+03	-6.301491e+03	6.041742e+03	-1.234323e+04	9.192487e+03	2.963084e+03	-2.078359e+02	1.017921e-16	-2.078359e+02	2.078359e+02
3             	4.851350e+02	-8.488334e+02	1.333968e+03	2.321046e+03	-5.387835e+03	7.708881e+03	-6.548358e+03	-1.091401e+03	2.281199e+02	-1.803332e-16	2.281199e+02	-2.281199e+02
4             	9.541133e+02	-5.257374e+03	6.211487e+03	1.219522e+04	-1.461290e+04	2.680812e+04	-2.071051e+04	-5.734430e+03	4.486426e+02	-1.500661e-16	4.486426e+02	-4.486426e+02
5             	6.404669e+02	-7.358200e+03	7.998667e+03	1.632947e+04	-1.606441e+04	3.239388e+04	-2.422914e+04	-7.678434e+03	3.011600e+02	-1.566141e-16	3.011600e+02	-3.011600e+02
6             	-3.344902e+03	-2.741045e+04	2.406554e+04	5.473614e+04	-6.655643e+04	1.212926e+05	-9.392450e+04	-2.573800e+04	-1.572838e+03	2.491918e-17	-1.572838e+03	1.572838e+03
7             	-8.054147e+03	-5.120956e+04	4.315542e+04	1.003414e+05	-1.359421e+05	2.362835e+05	-1.861128e+05	-4.718249e+04	-3.787217e+03	3.876572e-16	-3.787217e+03	3.787217e+03
8             	-4.190456e+03	-2.362704e+04	1.943658e+04	4.579099e+04	-7.837148e+04	1.241625e+05	-1.012670e+05	-2.153181e+04	-1.970434e+03	7.238216e-16	-1.970434e+03	1.970434e+03
9             	2.278517e+03	1.870888e+04	-1.643036e+04	-3.736473e+04	3.874828e+04	-7.611301e+04	5.743064e+04	1.756962e+04	1.071403e+03	2.988237e-15	1.071403e+03	-1.071403e+03
10            	9.651329e+03	6.133891e+04	-5.168758e+04	-1.201848e+05	1.556364e+05	-2.758212e+05	2.157288e+05	5.651324e+04	4.538242e+03	4.154923e-15	4.538242e+03	-4.538242e+03
11            	8.526052e+03	4.605156e+04	-3.752551e+04	-8.887029e+04	1.100518e+05	-1.989221e+05	1.544869e+05	4.178854e+04	4.009115e+03	2.534766e-15	4.009115e+03	-4.009115e+03
12            	-1.034996e+04	-6.406920e+04	5.371924e+04	1.252484e+05	-3.251158e+05	4.503642e+05	-3.877400e+05	-5.889422e+04	-4.866752e+03	1.802016e-14	-4.866752e+03	4.866752e+03
13            	-1.334070e+04	-9.595004e+04	8.260934e+04	1.898681e+05	-4.334224e+05	6.232906e+05	-5.283565e+05	-8.927969e+04	-6.273058e+03	1.926215e-14	-6.273058e+03	6.273058e+03
14            	-4.455637e+03	-9.277949e+04	8.832385e+04	1.925732e+05	-4.428947e+05	6.354679e+05	-5.391813e+05	-9.055167e+04	-2.095127e+03	1.378484e-14	-2.095127e+03	2.095127e+03
15            	8.862648e+03	-4.272053e+04	5.158318e+04	1.002763e+05	-2.553547e+05	3.556310e+05	-3.054928e+05	-4.715186e+04	4.167389e+03	6.738123e-15	4.167389e+03	-4.167389e+03
16            	2.262127e+04	1.830546e+04	4.315813e+03	-1.487566e+04	2.330959e+04	-3.818525e+04	3.074742e+04	6.994822e+03	1.063696e+04	1.520112e-15	1.063696e+04	-1.063696e+04
17            	2.690715e+04	6.248303e+04	-3.557588e+04	-1.042693e+05	2.345505e+05	-3.388198e+05	2.866852e+05	4.902946e+04	1.265226e+04	-4.335933e-15	1.265226e+04	-1.265226e+04
18            	1.777352e+04	5.509367e+04	-3.732015e+04	-9.826669e+04	2.061672e+05	-3.044339e+05	2.553006e+05	4.620691e+04	8.357453e+03	-5.722612e-15	8.357453e+03	-8.357453e+03
19            	-2.544091e+03	-1.552752e+04	1.298343e+04	3.031664e+04	-7.051364e+04	1.008303e+05	-8.567196e+04	-1.425547e+04	-1.196281e+03	9.486638e-16	-1.196281e+03	1.196281e+03
20            	-1.551373e+04	-4.367313e+04	2.815941e+04	7.638193e+04	-1.776966e+05	2.540785e+05	-2.158875e+05	-3.591627e+04	-7.294855e+03	4.408579e-15	-7.294855e+03	7.294855e+03
21            	-1.471662e+04	-1.631780e+04	1.601179e+03	1.905385e+04	-5.247611e+04	7.152996e+04	-6.200303e+04	-8.959490e+03	-6.920042e+03	2.654054e-15	-6.920042e+03	6.920042e+03
22            	-4.747924e+03	2.022399e+04	-2.497192e+04	-4.805832e+04	1.086846e+05	-1.567429e+05	1.327138e+05	2.259795e+04	-2.232566e+03	-1.565672e-15	-2.232566e+03	2.232566e+03
23            	1.576912e+04	1.026001e+05	-8.683103e+04	-2.014285e+05	4.798776e+05	-6.813061e+05	5.805918e+05	9.471559e+04	7.414945e+03	-5.159680e-15	7.414945e+03	-7.414945e+03
24            	2.008553e+04	8.803881e+04	-6.795329e+04	-1.658716e+05	3.946353e+05	-5.605069e+05	4.775711e+05	7.799605e+04	9.444605e+03	-2.895907e-15	9.444605e+03	-9.444605e+03
25            	1.104893e+04	4.198073e+04	-3.093180e+04	-7.753032e+04	1.662653e+05	-2.437956e+05	2.050304e+05	3.645626e+04	5.195422e+03	-1.312237e-15	5.195422e+03	-5.195422e+03
26            	1.188933e+03	3.886148e+03	-2.697215e+03	-7.000309e+03	-4.355849e+03	-2.644460e+03	-8.556944e+02	3.291681e+03	5.590595e+02	1.138454e-15	5.590595e+02	-5.590595e+02
27            	-7.167070e+03	-1.410264e+04	6.935572e+03	2.237063e+04	-6.857142e+04	9.094206e+04	-7.975674e+04	-1.051911e+04	-3.370095e+03	1.298580e-15	-3.370095e+03	3.370095e+03
28            	-8.318845e+03	-1.414893e+04	5.830082e+03	2.124435e+04	-5.744812e+04	7.869247e+04	-6.807029e+04	-9.989505e+03	-3.911683e+03	-8.778271e-16	-3.911683e+03	3.911683e+03
29            	-3.802599e+03	-1.456174e+03	-2.346424e+03	-9.466326e+02	4.540063e+03	-5.486695e+03	5.013379e+03	4.451250e+02	-1.788056e+03	-2.377474e-15	-1.788056e+03	1.788056e+03
30            	2.255257e+03	1.197503e+04	-9.719775e+03	-2.306881e+04	6.046262e+04	-8.353144e+04	7.199703e+04	1.084740e+04	1.060466e+03	-2.318872e-15	1.060466e+03	-1.060466e+03
31            	5.847155e+03	1.929444e+04	-1.344729e+04	-3.481537e+04	8.400779e+04	-1.188232e+05	1.014155e+05	1.637086e+04	2.749446e+03	-8.035022e-16	2.749446e+03	-2.749446e+03
32            	5.273064e+03	2.080650e+04	-1.553344e+04	-3.864147e+04	8.329243e+04	-1.219339e+05	1.026132e+05	1.816997e+04	2.479497e+03	-1.295714e-17	2.479497e+03	-2.479497e+03
33            	2.288481e+03	1.549398e+04	-1.320550e+04	-3.051712e+04	5.466321e+04	-8.518033e+04	6.992177e+04	1.434974e+04	1.076088e+03	6.051798e-16	1.076088e+03	-1.076088e+03
34            	-5.636107e+02	4.501049e+03	-5.064660e+03	-1.017154e+04	6.069800e+02	-1.077852e+04	5.692749e+03	4.782855e+03	-2.650207e+02	1.146685e-15	-2.650207e+02	2.650207e+02
35            	-4.684101e+02	-9.587928e+03	9.119518e+03	1.989225e+04	-5.975530e+04	7.964756e+04	-6.970143e+04	-9.353723e+03	-2.202555e+02	7.737836e-16	-2.202555e+02	2.202555e+02
36            	1.293040e+03	-1.706002e+04	1.835306e+04	3.765590e+04	-8.399685e+04	1.216528e+05	-1.028248e+05	-1.770654e+04	6.080126e+02	-9.068549e-17	6.080126e+02	-6.080126e+02
37            	3.004643e+03	-1.819137e+04	2.119601e+04	4.188191e+04	-7.955804e+04	1.214400e+05	-1.004990e+05	-1.969369e+04	1.412842e+03	-6.298152e-16	1.412842e+03	-1.412842e+03
38            	3.100132e+03	-1.221453e+04	1.531466e+04	2.927270e+04	-4.761115e+04	7.688385e+04	-6.224750e+04	-1.376459e+04	1.457742e+03	-7.602933e-16	1.457742e+03	-1.457742e+03
39            	2.305442e+03	-2.789904e+03	5.095346e+03	8.384650e+03	-7.330148e+03	1.571480e+04	-1.152247e+04	-3.942625e+03	1.084064e+03	-4.710751e-16	1.084064e+03	-1.084064e+03
40            	1.466713e+03	5.586932e+03	-4.120220e+03	-1.032194e+04	2.259119e+04	-3.291312e+04	2.775215e+04	4.853576e+03	6.896768e+02	-9.315656e-17	6.896768e+02	-6.896768e+02
41            	1.169791e+03	8.208339e+03	-7.038547e+03	-1.621252e+04	2.716785e+04	-4.338037e+04	3.527411e+04	7.623443e+03	5.500587e+02	9.579344e-17	5.500587e+02	-5.500587e+02
42            	1.234955e+03	5.090818e+03	-3.855863e+03	-9.513305e+03	1.067232e+04	-2.018562e+04	1.542897e+04	4.473341e+03	5.806998e+02	-6.361583e-18	5.806998e+02	-5.806998e+02
43            	1.272776e+03	-1.669302e+03	2.942078e+03	4.903434e+03	-1.595961e+04	2.086305e+04	-1.841133e+04	-2.305690e+03	5.984839e+02	-3.323429e-16	5.984839e+02	-5.984839e+02
44            	1.171803e+03	-7.345429e+03	8.517232e+03	1.686730e+04	-3.352740e+04	5.039469e+04	-4.196104e+04	-7.931330e+03	5.510047e+02	-6.687576e-16	5.510047e+02	-5.510047e+02
45            	1.013042e+03	-8.861975e+03	9.875017e+03	1.992367e+04	-3.348165e+04	5.340532e+04	-4.344349e+04	-9.368496e+03	4.763522e+02	-7.837718e-16	4.763522e+02	-4.763522e+02
46            	9.071962e+02	-7.360155e+03	8.267352e+03	1.661725e+04	-2.316536e+04	3.978261e+04	-3.147398e+04	-7.813754e+03	4.265813e+02	-6.701997e-16	4.265813e+02	-4.265813e+02
47            	8.308746e+02	-4.417888e+03	5.248763e+03	1.027887e+04	-1.014515e+04	2.042403e+04	-1.528459e+04	-4.833325e+03	3.906934e+02	-4.681089e-16	3.906934e+02	-3.906934e+02
48            	6.640698e+02	-1.831989e+03	2.496059e+03	4.602157e+03	-1.658932e+03	6.261089e+03	-3.960011e+03	-2.164024e+03	3.122585e+02	-3.267444e-16	3.122585e+02	-3.122585e+02
49            	4.062232e+02	-1.235094e+03	1.641317e+03	3.058584e+03	-2.108456e+03	5.167040e+03	-3.637748e+03	-1.438206e+03	1.910140e+02	-3.003024e-16	1.910140e+02	-1.910140e+02
50            	1.042314e+02	-2.316504e+03	2.420735e+03	5.037265e+03	-7.935181e+03	1.297245e+04	-1.045381e+04	-2.368620e+03	4.901165e+01	-3.628831e-16	4.901165e+01	-4.901165e+01
51            	-1.230453e+02	-4.131417e+03	4.008372e+03	8.655309e+03	-1.451479e+04	2.317010e+04	-1.884244e+04	-4.069894e+03	-5.785830e+01	-4.594875e-16	-5.785830e+01	5.785830e+01
52            	-2.070753e+02	-5.639371e+03	5.432296e+03	1.177287e+04	-1.824147e+04	3.001434e+04	-2.412790e+04	-5.535833e+03	-9.737084e+01	-5.256800e-16	-9.737084e+01	9.737084e+01
53            	-1.919564e+02	-6.203332e+03	6.011375e+03	1.298831e+04	-1.782498e+04	3.081329e+04	-2.431914e+04	-6.107354e+03	-9.026163e+01	-5.273830e-16	-9.026163e+01	9.026163e+01
54            	-2.085765e+02	-5.872261e+03	5.663685e+03	1.226656e+04	-1.469339e+04	2.695994e+04	-2.082666e+04	-5.767973e+03	-9.807672e+01	-4.823429e-16	-9.807672e+01	9.807672e+01
55            	-3.318794e+02	-5.042847e+03	4.710968e+03	1.037156e+04	-1.100667e+04	2.137823e+04	-1.619245e+04	-4.876908e+03	-1.560562e+02	-4.261544e-16	-1.560562e+02	1.560562e+02
56            	-5.247392e+02	-4.163135e+03	3.638395e+03	8.295627e+03	-8.268658e+03	1.656428e+04	-1.241647e+04	-3.900765e+03	-2.467426e+02	-3.909310e-16	-2.467426e+02	2.467426e+02
57            	-6.680945e+02	-3.633792e+03	2.965697e+03	7.017457e+03	-7.084684e+03	1.410214e+04	-1.059341e+04	-3.299745e+03	-3.141510e+02	-3.880554e-16	-3.141510e+02	3.141510e+02
58            	-7.164627e+02	-3.576693e+03	2.860230e+03	6.844594e+03	-7.096266e+03	1.394086e+04	-1.051856e+04	-3.218461e+03	-3.368947e+02	-4.111559e-16	-3.368947e+02	3.368947e+02
59            	-7.020383e+02	-3.908437e+03	3.206398e+03	7.565441e+03	-7.673765e+03	1.523921e+04	-1.145649e+04	-3.557418e+03	-3.301121e+02	-4.503839e-16	-3.301121e+02	3.301121e+02
60            	-6.765730e+02	-4.440614e+03	3.764041e+03	8.724283e+03	-8.280939e+03	1.700522e+04	-1.264308e+04	-4.102328e+03	-3.181378e+02	-4.868761e-16	-3.181378e+02	3.181378e+02
61            	-7.057479e+02	-4.874141e+03	4.168393e+03	9.615227e+03	-8.382200e+03	1.799743e+04	-1.318981e+04	-4.521267e+03	-3.318564e+02	-5.087857e-16	-3.318564e+02	3.318564e+02
62            	-8.128513e+02	-5.005651e+03	4.192799e+03	9.781019e+03	-7.786634e+03	1.756765e+04	-1.267714e+04	-4.599225e+03	-3.822185e+02	-5.183791e-16	-3.822185e+02	3.822185e+02
63            	-9.746718e+02	-4.822562e+03	3.847890e+03	9.219581e+03	-6.675523e+03	1.589510e+04	-1.128531e+04	-4.335226e+03	-4.583096e+02	-5.232423e-16	-4.583096e+02	4.583096e+02
64            	-1.140826e+03	-4.459275e+03	3.318449e+03	8.270313e+03	-5.443021e+03	1.371333e+04	-9.578177e+03	-3.888862e+03	-5.364385e+02	-5.282170e-16	-5.364385e+02	5.364385e+02
65            	-1.269025e+03	-4.061831e+03	2.792806e+03	7.288764e+03	-4.387623e+03	1.167639e+04	-8.032004e+03	-3.427318e+03	-5.967202e+02	-5.316439e-16	-5.967202e+02	5.967202e+02
66            	-1.320166e+03	-3.808815e+03	2.488649e+03	6.696303e+03	-3.876347e+03	1.057265e+04	-7.224499e+03	-3.148732e+03	-6.207678e+02	-5.348157e-16	-6.207678e+02	6.207678e+02
67            	-1.310450e+03	-3.749902e+03	2.439452e+03	6.581347e+03	-3.899394e+03	1.048074e+04	-7.190068e+03	-3.094677e+03	-6.161991e+02	-5.371028e-16	-6.161991e+02	6.161991e+02
68            	-1.285119e+03	-3.788785e+03	2.503666e+03	6.690972e+03	-4.104954e+03	1.079593e+04	-7.450440e+03	-3.146225e+03	-6.042879e+02	-5.356728e-16	-6.042879e+02	6.042879e+02
69            	-1.269405e+03	-3.809440e+03	2.540034e+03	6.751608e+03	-4.189461e+03	1.094107e+04	-7.565264e+03	-3.174737e+03	-5.968991e+02	-5.291279e-16	-5.968991e+02	5.968991e+02
70            	-1.278700e+03	-3.721391e+03	2.442691e+03	6.554473e+03	-3.947295e+03	1.050177e+04	-7.224531e+03	-3.082041e+03	-6.012697e+02	-5.189774e-16	-6.012697e+02	6.012697e+02
71            	-1.311324e+03	-3.483617e+03	2.172293e+03	6.014118e+03	-3.312223e+03	9.326341e+03	-6.319282e+03	-2.827955e+03	-6.166099e+02	-4.999441e-16	-6.166099e+02	6.166099e+02
72            	-1.310788e+03	-3.306558e+03	1.995770e+03	5.638142e+03	-2.934484e+03	8.572626e+03	-5.753555e+03	-2.651164e+03	-6.163579e+02	-4.874289e-16	-6.163579e+02	6.163579e+02
73            	-1.336748e+03	-3.003363e+03	1.666614e+03	4.965742e+03	-2.152485e+03	7.118228e+03	-4.635356e+03	-2.334989e+03	-6.285650e+02	-4.710481e-16	-6.285650e+02	6.285650e+02
74            	-1.323659e+03	-2.798716e+03	1.475057e+03	4.544445e+03	-1.746229e+03	6.290674e+03	-4.018452e+03	-2.136886e+03	-6.224101e+02	-4.617150e-16	-6.224101e+02	6.224101e+02
75            	-1.273455e+03	-2.730113e+03	1.456659e+03	4.451934e+03	-1.788557e+03	6.240491e+03	-4.014524e+03	-2.093386e+03	-5.988032e+02	-4.560438e-16	-5.988032e+02	5.988032e+02
76            	-1.195929e+03	-2.695181e+03	1.499251e+03	4.460079e+03	-2.009546e+03	6.469625e+03	-4.239585e+03	-2.097216e+03	-5.623493e+02	-4.558409e-16	-5.623493e+02	5.623493e+02
77            	-1.118180e+03	-2.684708e+03	1.566528e+03	4.520481e+03	-2.289911e+03	6.810392e+03	-4.550152e+03	-2.125618e+03	-5.257899e+02	-4.546189e-16	-5.257899e+02	5.257899e+02
78            	-1.066376e+03	-2.662309e+03	1.595933e+03	4.527931e+03	-2.410793e+03	6.938724e+03	-4.674759e+03	-2.129121e+03	-5.014307e+02	-4.484620e-16	-5.014307e+02	5.014307e+02
79            	-1.015097e+03	-2.628584e+03	1.613487e+03	4.510736e+03	-2.456599e+03	6.967335e+03	-4.711967e+03	-2.121036e+03	-4.773181e+02	-4.384604e-16	-4.773181e+02	4.773181e+02
80            	-9.889143e+02	-2.560184e+03	1.571269e+03	4.393112e+03	-2.298109e+03	6.691221e+03	-4.494665e+03	-2.065727e+03	-4.650067e+02	-4.273146e-16	-4.650067e+02	4.650067e+02
81            	-9.736609e+02	-2.454042e+03	1.480381e+03	4.183603e+03	-2.028179e+03	6.211782e+03	-4.119981e+03	-1.967211e+03	-4.578343e+02	-4.141603e-16	-4.578343e+02	4.578343e+02
82            	-9.479226e+02	-2.334623e+03	1.386701e+03	3.957008e+03	-1.811031e+03	5.768039e+03	-3.789535e+03	-1.860662e+03	-4.457316e+02	-3.991508e-16	-4.457316e+02	4.457316e+02
83            	-9.030615e+02	-2.224363e+03	1.321301e+03	3.770223e+03	-1.731141e+03	5.501364e+03	-3.616252e+03	-1.772832e+03	-4.246371e+02	-3.831937e-16	-4.246371e+02	4.246371e+02
84            	-8.444709e+02	-2.131961e+03	1.287490e+03	3.636017e+03	-1.755840e+03	5.391857e+03	-3.573848e+03	-1.709726e+03	-3.970866e+02	-3.663989e-16	-3.970866e+02	3.970866e+02
85            	-7.846784e+02	-2.044398e+03	1.259719e+03	3.513378e+03	-1.780231e+03	5.293608e+03	-3.536920e+03	-1.652059e+03	-3.689711e+02	-3.502053e-16	-3.689711e+02	3.689711e+02
86            	-7.317740e+02	-1.938788e+03	1.207013e+03	3.345035e+03	-1.718600e+03	5.063635e+03	-3.391118e+03	-1.572901e+03	-3.440944e+02	-3.336652e-16	-3.440944e+02	3.440944e+02
87            	-6.833084e+02	-1.805379e+03	1.122071e+03	3.112855e+03	-1.569788e+03	4.682643e+03	-3.126215e+03	-1.463725e+03	-3.213049e+02	-3.134758e-16	-3.213049e+02	3.213049e+02
88            	-6.372462e+02	-1.652627e+03	1.015380e+03	2.836981e+03	-1.374350e+03	4.211331e+03	-2.792840e+03	-1.334004e+03	-2.996455e+02	-2.881049e-16	-2.996455e+02	2.996455e+02
89            	-5.909958e+02	-1.503902e+03	9.129058e+02	2.569872e+03	-1.205682e+03	3.775554e+03	-2.490618e+03	-1.208404e+03	-2.778977e+02	-2.581226e-16	-2.778977e+02	2.778977e+02
90            	-5.430546e+02	-1.374070e+03	8.310157e+02	2.344741e+03	-1.097300e+03	3.442042e+03	-2.269671e+03	-1.102543e+03	-2.553548e+02	-2.256874e-16	-2.553548e+02	2.553548e+02
91            	-4.911582e+02	-1.259173e+03	7.680148e+02	2.155576e+03	-1.044804e+03	3.200380e+03	-2.122592e+03	-1.013594e+03	-2.309521e+02	-1.930428e-16	-2.309521e+02	2.309521e+02
92            	-4.334809e+02	-1.155391e+03	7.219097e+02	1.996196e+03	-1.046056e+03	3.042252e+03	-2.044154e+03	-9.386502e+02	-2.038311e+02	-1.631728e-16	-2.038311e+02	2.038311e+02
93            	-3.688482e+02	-1.068979e+03	7.001309e+02	1.881154e+03	-1.116496e+03	2.997649e+03	-2.057073e+03	-8.845550e+02	-1.734396e+02	-1.390434e-16	-1.734396e+02	1.734396e+02
94            	-3.019940e+02	-1.009514e+03	7.075200e+02	1.825779e+03	-1.241700e+03	3.067479e+03	-2.154589e+03	-8.585170e+02	-1.420034e+02	-1.219930e-16	-1.420034e+02	1.420034e+02
95            	-2.450478e+02	-9.692004e+02	7.241526e+02	1.800599e+03	-1.344692e+03	3.145291e+03	-2.244992e+03	-8.466765e+02	-1.152262e+02	-1.102736e-16	-1.152262e+02	1.152262e+02
96            	-2.070877e+02	-9.212635e+02	7.141757e+02	1.739017e+03	-1.337802e+03	3.076819e+03	-2.207311e+03	-8.177196e+02	-9.737666e+01	-9.953440e-17	-9.737666e+01	9.737666e+01
97            	-1.819819e+02	-8.636291e+02	6.816472e+02	1.643144e+03	-1.270826e+03	2.913970e+03	-2.092398e+03	-7.726382e+02	-8.557142e+01	-8.773175e-17	-8.557142e+01	8.557142e+01
98            	-1.605749e+02	-8.003752e+02	6.398003e+02	1.531387e+03	-1.211808e+03	2.743195e+03	-1.977502e+03	-7.200878e+02	-7.550543e+01	-7.437907e-17	-7.550543e+01	7.550543e+01
99            	-1.373976e+02	-7.456848e+02	6.082872e+02	1.439724e+03	-1.211889e+03	2.651613e+03	-1.931751e+03	-6.769860e+02	-6.460703e+01	-6.077538e-17	-6.460703e+01	6.460703e+01
100           	-1.120235e+02	-7.023590e+02	5.903355e+02	1.374565e+03	-1.253259e+03	2.627824e+03	-1.940542e+03	-6.463472e+02	-5.267564e+01	-4.814389e-17	-5.267564e+01	5.267564e+01
101           	-8.719299e+01	-6.654013e+02	5.782083e+02	1.322372e+03	-1.291451e+03	2.613823e+03	-1.952637e+03	-6.218048e+02	-4.099984e+01	-3.733495e-17	-4.099984e+01	4.099984e+01
102           	-6.445339e+01	-6.351281e+02	5.706747e+02	1.282170e+03	-1.313809e+03	2.595979e+03	-1.954894e+03	-6.029014e+02	-3.030724e+01	-3.027117e-17	-3.030724e+01	3.030724e+01
103           	-4.192596e+01	-6.200981e+02	5.781721e+02	1.274161e+03	-1.351869e+03	2.626029e+03	-1.988949e+03	-5.991351e+02	-1.971440e+01	-2.906973e-17	-1.971440e+01	1.971440e+01
104           	-1.972718e+01	-6.219544e+02	6.022273e+02	1.301713e+03	-1.422789e+03	2.724502e+03	-2.073645e+03	-6.120908e+02	-9.276104e+00	-3.293952e-17	-9.276104e+00	9.276104e+00
105           	3.363263e+00	-6.413274e+02	6.446907e+02	1.367466e+03	-1.542852e+03	2.910318e+03	-2.226585e+03	-6.430090e+02	1.581472e+00	-3.975418e-17	1.581472e+00	-1.581472e+00
106           	2.230546e+01	-6.593411e+02	6.816466e+02	1.425917e+03	-1.657011e+03	3.082928e+03	-2.369969e+03	-6.704938e+02	1.048846e+01	-4.407447e-17	1.048846e+01	-1.048846e+01
107           	3.963723e+01	-6.793733e+02	7.190106e+02	1.486948e+03	-1.778453e+03	3.265401e+03	-2.521927e+03	-6.991920e+02	1.863820e+01	-4.399615e-17	1.863820e+01	-1.863820e+01
108           	5.438799e+01	-6.988523e+02	7.532403e+02	1.544059e+03	-1.890047e+03	3.434105e+03	-2.662076e+03	-7.260463e+02	2.557429e+01	-4.190440e-17	2.557429e+01	-2.557429e+01
109           	6.247759e+01	-7.117190e+02	7.741966e+02	1.580024e+03	-1.952938e+03	3.532962e+03	-2.742950e+03	-7.429578e+02	2.937818e+01	-4.099773e-17	2.937818e+01	-2.937818e+01
110           	8.042723e+01	-7.369377e+02	8.173649e+02	1.652742e+03	-2.087002e+03	3.739743e+03	-2.913373e+03	-7.771513e+02	3.781845e+01	-3.857959e-17	3.781845e+01	-3.781845e+01
111           	9.704947e+01	-7.684445e+02	8.654940e+02	1.737421e+03	-2.232099e+03	3.969521e+03	-3.100810e+03	-8.169693e+02	4.563455e+01	-3.883428e-17	4.563455e+01	-4.563455e+01
112           	1.023018e+02	-7.772479e+02	8.795497e+02	1.761728e+03	-2.281381e+03	4.043109e+03	-3.162245e+03	-8.283988e+02	4.810432e+01	-3.902424e-17	4.810432e+01	-4.810432e+01
113           	1.054543e+02	-7.794591e+02	8.849134e+02	1.769783e+03	-2.313775e+03	4.083558e+03	-3.198666e+03	-8.321862e+02	4.958666e+01	-3.995165e-17	4.958666e+01	-4.958666e+01
114           	1.073159e+02	-7.602421e+02	8.675579e+02	1.730894e+03	-2.310976e+03	4.041870e+03	-3.176423e+03	-8.139000e+02	5.046202e+01	-3.994761e-17	5.046202e+01	-5.046202e+01
115           	1.100243e+02	-7.300821e+02	8.401064e+02	1.669634e+03	-2.275724e+03	3.945358e+03	-3.110541e+03	-7.850942e+02	5.173556e+01	-3.742774e-17	5.173556e+01	-5.173556e+01
116           	1.091467e+02	-7.057740e+02	8.149207e+02	1.617005e+03	-2.229670e+03	3.846676e+03	-3.038173e+03	-7.603473e+02	5.132289e+01	-3.399680e-17	5.132289e+01	-5.132289e+01
117           	1.060378e+02	-6.952296e+02	8.012674e+02	1.591275e+03	-2.206050e+03	3.797325e+03	-3.001688e+03	-7.482485e+02	4.986104e+01	-3.279096e-17	4.986104e+01	-4.986104e+01
118           	9.640272e+01	-6.790434e+02	7.754461e+02	1.546607e+03	-2.163621e+03	3.710229e+03	-2.936925e+03	-7.272447e+02	4.533043e+01	-3.234921e-17	4.533043e+01	-4.533043e+01
119           	8.753316e+01	-6.580794e+02	7.456125e+02	1.492592e+03	-2.116534e+03	3.609126e+03	-2.862830e+03	-7.018459e+02	4.115979e+01	-3.297340e-17	4.115979e+01	-4.115979e+01
120           	8.114221e+01	-6.307975e+02	7.119397e+02	1.427777e+03	-2.052396e+03	3.480173e+03	-2.766284e+03	-6.713686e+02	3.815464e+01	-3.347657e-17	3.815464e+01	-3.815464e+01
121           	7.219485e+01	-5.996326e+02	6.718274e+02	1.351986e+03	-1.961970e+03	3.313956e+03	-2.637963e+03	-6.357300e+02	3.394742e+01	-3.433749e-17	3.394742e+01	-3.394742e+01
122           	6.053511e+01	-5.761422e+02	6.366773e+02	1.289631e+03	-1.876138e+03	3.165770e+03	-2.520954e+03	-6.064098e+02	2.846479e+01	-3.509423e-17	2.846479e+01	-2.846479e+01
123           	4.501039e+01	-5.644216e+02	6.094320e+02	1.248198e+03	-1.803553e+03	3.051751e+03	-2.427652e+03	-5.869268e+02	2.116476e+01	-3.703997e-17	2.116476e+01	-2.116476e+01
124           	3.238791e+01	-5.660500e+02	5.984379e+02	1.238239e+03	-1.763596e+03	3.001834e+03	-2.382715e+03	-5.822440e+02	1.522942e+01	-3.840334e-17	1.522942e+01	-1.522942e+01
125           	2.347730e+01	-5.770079e+02	6.004852e+02	1.252068e+03	-1.750089e+03	3.002156e+03	-2.376123e+03	-5.887465e+02	1.103948e+01	-3.926400e-17	1.103948e+01	-1.103948e+01
126           	1.674382e+01	-5.846569e+02	6.014007e+02	1.261175e+03	-1.736013e+03	2.997187e+03	-2.366600e+03	-5.930288e+02	7.873270e+00	-3.952292e-17	7.873270e+00	-7.873270e+00
127           	8.948681e+00	-5.844945e+02	5.934432e+02	1.252540e+03	-1.704457e+03	2.956998e+03	-2.330727e+03	-5.889689e+02	4.207844e+00	-4.012339e-17	4.207844e+00	-4.207844e+00
128           	-6.646671e-01	-5.723496e+02	5.716850e+02	1.216490e+03	-1.644410e+03	2.860900e+03	-2.252655e+03	-5.720173e+02	-3.125394e-01	-4.052549e-17	-3.125394e-01	3.125394e-01
129           	-1.134500e+01	-5.501206e+02	5.387756e+02	1.157860e+03	-1.560727e+03	2.718586e+03	-2.139656e+03	-5.444481e+02	-5.334641e+00	-4.017782e-17	-5.334641e+00	5.334641e+00
130           	-1.785003e+01	-5.329082e+02	5.150582e+02	1.114338e+03	-1.503394e+03	2.617732e+03	-2.060563e+03	-5.239832e+02	-8.393431e+00	-3.920370e-17	-8.393431e+00	8.393431e+00
131           	-3.044409e+01	-5.089234e+02	4.784793e+02	1.049938e+03	-1.405244e+03	2.455183e+03	-1.930214e+03	-4.937013e+02	-1.431540e+01	-3.828887e-17	-1.431540e+01	1.431540e+01
132           	-4.011468e+01	-4.939779e+02	4.538632e+02	1.007871e+03	-1.334255e+03	2.342126e+03	-1.838191e+03	-4.739205e+02	-1.886270e+01	-3.760220e-17	-1.886270e+01	1.886270e+01
133           	-4.718631e+01	-4.863137e+02	4.391273e+02	9.840523e+02	-1.287668e+03	2.271720e+03	-1.779694e+03	-4.627205e+02	-2.218792e+01	-3.729770e-17	-2.218792e+01	2.218792e+01
134           	-5.318410e+01	-4.826255e+02	4.294414e+02	9.698312e+02	-1.255624e+03	2.225455e+03	-1.740539e+03	-4.560335e+02	-2.500820e+01	-3.761056e-17	-2.500820e+01	2.500820e+01
135           	-5.967058e+01	-4.788963e+02	4.192257e+02	9.550031e+02	-1.223530e+03	2.178533e+03	-1.701032e+03	-4.490610e+02	-2.805827e+01	-3.848361e-17	-2.805827e+01	2.805827e+01
136           	-6.751112e+01	-4.723060e+02	4.047949e+02	9.326506e+02	-1.179899e+03	2.112549e+03	-1.646224e+03	-4.385504e+02	-3.174504e+01	-3.989282e-17	-3.174504e+01	3.174504e+01
137           	-7.605158e+01	-4.613567e+02	3.853051e+02	9.002838e+02	-1.121992e+03	2.022276e+03	-1.572134e+03	-4.233309e+02	-3.576093e+01	-4.141993e-17	-3.576093e+01	3.576093e+01
138           	-8.414652e+01	-4.465748e+02	3.624283e+02	8.602400e+02	-1.055027e+03	1.915267e+03	-1.485147e+03	-4.045016e+02	-3.956733e+01	-4.263830e-17	-3.956733e+01	3.956733e+01
139           	-9.095750e+01	-4.312158e+02	3.402583e+02	8.203341e+02	-9.907453e+02	1.811079e+03	-1.400912e+03	-3.857370e+02	-4.276999e+01	-4.332196e-17	-4.276999e+01	4.276999e+01
140           	-9.676470e+01	-4.189013e+02	3.221366e+02	7.879703e+02	-9.376525e+02	1.725623e+03	-1.331638e+03	-3.705190e+02	-4.550064e+01	-4.365848e-17	-4.550064e+01	4.550064e+01
141           	-1.023117e+02	-4.114954e+02	3.091836e+02	7.663220e+02	-8.972810e+02	1.663603e+03	-1.280442e+03	-3.603395e+02	-4.810896e+01	-4.400338e-17	-4.810896e+01	4.810896e+01
142           	-1.077583e+02	-4.090280e+02	3.012697e+02	7.552832e+02	-8.686828e+02	1.623966e+03	-1.246324e+03	-3.551489e+02	-5.067003e+01	-4.461649e-17	-5.067003e+01	5.067003e+01
143           	-1.128162e+02	-4.095322e+02	2.967160e+02	7.509773e+02	-8.479837e+02	1.598961e+03	-1.223472e+03	-3.531241e+02	-5.304836e+01	-4.561448e-17	-5.304836e+01	5.304836e+01
144           	-1.177673e+02	-4.105959e+02	2.928286e+02	7.479747e+02	-8.276698e+02	1.575644e+03	-1.201657e+03	-3.517122e+02	-5.537646e+01	-4.696436e-17	-5.537646e+01	5.537646e+01
145           	-1.219653e+02	-4.107013e+02	2.887360e+02	7.437350e+02	-8.069615e+02	1.550697e+03	-1.178829e+03	-3.497187e+02	-5.735044e+01	-4.848179e-17	-5.735044e+01	5.735044e+01
146           	-1.253585e+02	-4.088710e+02	2.835126e+02	7.362346e+02	-7.837715e+02	1.520006e+03	-1.151889e+03	-3.461918e+02	-5.894599e+01	-4.990280e-17	-5.894599e+01	5.894599e+01
147           	-1.279924e+02	-4.050905e+02	2.770981e+02	7.253938e+02	-7.579477e+02	1.483342e+03	-1.120645e+03	-3.410943e+02	-6.018452e+01	-5.096238e-17	-6.018452e+01	6.018452e+01
148           	-1.300418e+02	-4.001457e+02	2.701039e+02	7.126987e+02	-7.303473e+02	1.443046e+03	-1.086697e+03	-3.351248e+02	-6.114820e+01	-5.160173e-17	-6.114820e+01	6.114820e+01
149           	-1.317250e+02	-3.948517e+02	2.631267e+02	6.996504e+02	-7.018691e+02	1.401520e+03	-1.051694e+03	-3.289892e+02	-6.193964e+01	-5.180612e-17	-6.193964e+01	6.193964e+01
150           	-1.330738e+02	-3.899820e+02	2.569082e+02	6.878599e+02	-6.739540e+02	1.361814e+03	-1.017884e+03	-3.234451e+02	-6.257387e+01	-5.171175e-17	-6.257387e+01	6.257387e+01
151           	-1.341650e+02	-3.853878e+02	2.512229e+02	6.769294e+02	-6.459465e+02	1.322876e+03	-9.844112e+02	-3.183053e+02	-6.308697e+01	-5.143148e-17	-6.308697e+01	6.308697e+01
152           	-1.349255e+02	-3.801894e+02	2.452640e+02	6.650654e+02	-6.158639e+02	1.280929e+03	-9.483966e+02	-3.127267e+02	-6.344459e+01	-5.101325e-17	-6.344459e+01	6.344459e+01
153           	-1.350561e+02	-3.739064e+02	2.388504e+02	6.515647e+02	-5.843425e+02	1.235907e+03	-9.101249e+02	-3.063784e+02	-6.350600e+01	-5.053481e-17	-6.350600e+01	6.350600e+01
154           	-1.345417e+02	-3.662899e+02	2.317482e+02	6.359138e+02	-5.514249e+02	1.187339e+03	-8.693818e+02	-2.990190e+02	-6.326411e+01	-4.999228e-17	-6.326411e+01	6.326411e+01
155           	-1.335393e+02	-3.578500e+02	2.243107e+02	6.190309e+02	-5.182309e+02	1.137262e+03	-8.277463e+02	-2.910803e+02	-6.279276e+01	-4.932741e-17	-6.279276e+01	6.279276e+01
156           	-1.322856e+02	-3.495303e+02	2.172447e+02	6.026708e+02	-4.864961e+02	1.089167e+03	-7.878315e+02	-2.833875e+02	-6.220324e+01	-4.850118e-17	-6.220324e+01	6.220324e+01
157           	-1.309336e+02	-3.421370e+02	2.112034e+02	5.883853e+02	-4.576547e+02	1.046040e+03	-7.518473e+02	-2.766702e+02	-6.156755e+01	-4.752699e-17	-6.156755e+01	6.156755e+01
158           	-1.295022e+02	-3.360408e+02	2.065386e+02	5.769427e+02	-4.325246e+02	1.009467e+03	-7.209960e+02	-2.712897e+02	-6.089445e+01	-4.645394e-17	-6.089445e+01	6.089445e+01
159           	-1.279752e+02	-3.309583e+02	2.029831e+02	5.677577e+02	-4.104723e+02	9.782301e+02	-6.943512e+02	-2.669707e+02	-6.017642e+01	-4.528610e-17	-6.017642e+01	6.017642e+01
160           	-1.262640e+02	-3.265483e+02	2.002843e+02	5.601986e+02	-3.911209e+02	9.513195e+02	-6.712202e+02	-2.634163e+02	-5.937180e+01	-4.403332e-17	-5.937180e+01	5.937180e+01
161           	-1.243057e+02	-3.223380e+02	1.980324e+02	5.533272e+02	-3.736560e+02	9.269832e+02	-6.503196e+02	-2.601852e+02	-5.845093e+01	-4.272429e-17	-5.845093e+01	5.845093e+01
162           	-1.221431e+02	-3.182750e+02	1.961319e+02	5.469861e+02	-3.580356e+02	9.050217e+02	-6.315287e+02	-2.572035e+02	-5.743405e+01	-4.146254e-17	-5.743405e+01	5.743405e+01
163           	-1.199326e+02	-3.144182e+02	1.944856e+02	5.411344e+02	-3.439954e+02	8.851298e+02	-6.145626e+02	-2.544519e+02	-5.639464e+01	-4.023779e-17	-5.639464e+01	5.639464e+01
164           	-1.177655e+02	-3.110443e+02	1.932788e+02	5.362636e+02	-3.320375e+02	8.683011e+02	-6.001693e+02	-2.521615e+02	-5.537561e+01	-3.925967e-17	-5.537561e+01	5.537561e+01