# Force and moment coefficients
# dragDir     : (1.000000e+00 0.000000e+00 0.000000e+00)
# sideDir     : (0.000000e+00 0.000000e+00 -1.000000e+00)
# liftDir     : (0.000000e+00 1.000000e+00 0.000000e+00)
# rollAxis    : (1.000000e+00 0.000000e+00 0.000000e+00)
# pitchAxis   : (0.000000e+00 0.000000e+00 -1.000000e+00)
# yawAxis     : (0.000000e+00 1.000000e+00 0.000000e+00)
# magUInf     : 7.300000e+00
# lRef        : 3.190000e-01
# Aref        : 1.595000e-03
# CofR        : (0.000000e+00 0.000000e+00 0.000000e+00)
#
# Time        	Cd            	Cd(f)         	Cd(r)         	Cl            	Cl(f)         	Cl(r)         	CmPitch       	CmRoll        	CmYaw         	Cs            	Cs(f)         	Cs(r)         
1             	-8.032787e+01	1.129267e+03	-1.209594e+03	-2.486989e+03	3.295116e+03	-5.782105e+03	4.538610e+03	1.169431e+03	-3.777173e+01	5.796916e-17	-3.777173e+01	3.777173e+01
2             	-3.335337e+01	8.664757e+02	-8.998291e+02	-1.878171e+03	2.785435e+03	-4.663606e+03	3.724521e+03	8.831524e+02	-1.568340e+01	5.401486e-17	-1.568340e+01	1.568340e+01
3             	-1.957698e+01	4.181617e+02	-4.377387e+02	-9.101073e+02	1.270556e+03	-2.180663e+03	1.725610e+03	4.279502e+02	-9.205478e+00	-1.024225e-17	-9.205478e+00	9.205478e+00
4             	1.810453e+01	-4.527784e+00	2.263232e+01	2.888024e+01	9.431425e+01	-6.543401e+01	7.987413e+01	-1.358005e+01	8.513102e+00	-2.510272e-17	8.513102e+00	-8.513102e+00
5             	-1.564620e+00	-3.779345e+01	3.622883e+01	7.871035e+01	2.180876e+02	-1.393773e+02	1.787325e+02	-3.701114e+01	-7.357149e-01	-8.845702e-18	-7.357149e-01	7.357149e-01
6             	-6.512541e+01	1.044327e+02	-1.695581e+02	-2.913436e+02	1.045687e+03	-1.337031e+03	1.191359e+03	1.369954e+02	-3.062323e+01	3.708892e-17	-3.062323e+01	3.062323e+01
7             	-3.520966e+01	8.043544e+01	-1.156451e+02	-2.084990e+02	8.895584e+02	-1.098057e+03	9.938079e+02	9.804027e+01	-1.655627e+01	2.587564e-17	-1.655627e+01	1.655627e+01
8             	2.697335e+01	1.901903e+02	-1.632170e+02	-3.757898e+02	8.494005e+02	-1.225190e+03	1.037295e+03	1.767037e+02	1.268339e+01	-3.745566e-18	1.268339e+01	-1.268339e+01
9             	1.431517e+02	1.025905e+02	4.056125e+01	-6.595775e+01	-7.156419e+01	5.606436e+00	-3.858531e+01	3.101462e+01	6.731273e+01	-7.955623e-17	6.731273e+01	-6.731273e+01
10            	1.156838e+02	2.513075e+02	-1.356237e+02	-4.114368e+02	4.831505e+02	-8.945873e+02	6.888689e+02	1.934656e+02	5.439676e+01	-5.530773e-17	5.439676e+01	-5.439676e+01
11            	1.992280e+01	4.108759e+02	-3.909531e+02	-8.526115e+02	1.353131e+03	-2.205742e+03	1.779436e+03	4.009145e+02	9.368087e+00	-7.527961e-18	9.368087e+00	-9.368087e+00
12            	-1.111483e+02	5.270387e+02	-6.381871e+02	-1.239023e+03	2.292325e+03	-3.531349e+03	2.911837e+03	5.826129e+02	-5.226411e+01	4.094756e-17	-5.226411e+01	5.226411e+01
13            	-1.345610e+02	2.797338e+02	-4.142948e+02	-7.379838e+02	1.817863e+03	-2.555847e+03	2.186855e+03	3.470143e+02	-6.327318e+01	3.119039e-17	-6.327318e+01	6.327318e+01
14            	-5.702475e+01	3.573223e+01	-9.275698e+01	-1.366269e+02	8.761499e+02	-1.012777e+03	9.444633e+02	6.424460e+01	-2.681415e+01	-2.983240e-18	-2.681415e+01	2.681415e+01
15            	1.039705e+02	-2.318838e+02	3.358543e+02	6.036949e+02	-6.239644e+02	1.227659e+03	-9.258118e+02	-2.838691e+02	4.888895e+01	-6.747671e-17	4.888895e+01	-4.888895e+01
16            	2.417745e+02	-3.456410e+02	5.874154e+02	9.921499e+02	-1.731437e+03	2.723587e+03	-2.227512e+03	-4.665282e+02	1.136871e+02	-1.352580e-16	1.136871e+02	-1.136871e+02
17            	1.334557e+02	9.283103e+01	4.062466e+01	-5.551278e+01	-1.705544e+02	1.150417e+02	-1.427981e+02	2.610319e+01	6.275346e+01	-4.094653e-17	6.275346e+01	-6.275346e+01
18            	-5.322596e+01	5.857910e+02	-6.390169e+02	-1.302379e+03	2.000001e+03	-3.302380e+03	2.651191e+03	6.124039e+02	-2.502788e+01	5.689788e-17	-2.502788e+01	2.502788e+01
19            	-1.223709e+02	6.284189e+02	-7.507898e+02	-1.466559e+03	2.469952e+03	-3.936510e+03	3.203231e+03	6.896043e+02	-5.754116e+01	7.443957e-17	-5.754116e+01	5.754116e+01
20            	-7.533605e+01	3.432080e+02	-4.185440e+02	-8.099963e+02	1.599321e+03	-2.409317e+03	2.004319e+03	3.808760e+02	-3.542448e+01	4.444796e-17	-3.542448e+01	3.542448e+01
21            	9.456674e+00	4.514552e+01	-3.568884e+01	-8.595387e+01	4.059856e+02	-4.919394e+02	4.489625e+02	4.041718e+01	4.446712e+00	4.205192e-18	4.446712e+00	-4.446712e+00
22            	1.181879e+02	-2.015727e+02	3.197606e+02	5.543511e+02	-8.447119e+02	1.399063e+03	-1.121887e+03	-2.606666e+02	5.557425e+01	-4.900174e-17	5.557425e+01	-5.557425e+01
23            	1.009850e+02	-7.205280e+01	1.730378e+02	2.606130e+02	-5.103122e+02	7.709253e+02	-6.406188e+02	-1.225453e+02	4.748512e+01	-4.360817e-17	4.748512e+01	-4.748512e+01
24            	1.842910e+01	1.892361e+02	-1.708070e+02	-3.828459e+02	5.161027e+02	-8.989486e+02	7.075257e+02	1.800216e+02	8.665722e+00	-3.919336e-18	8.665722e+00	-8.665722e+00
25            	-5.427842e+01	3.469948e+02	-4.012733e+02	-7.956584e+02	1.268933e+03	-2.064592e+03	1.666763e+03	3.741340e+02	-2.552277e+01	2.313725e-17	-2.552277e+01	2.552277e+01
26            	-6.752013e+01	3.156155e+02	-3.831356e+02	-7.430053e+02	1.285546e+03	-2.028551e+03	1.657048e+03	3.493755e+02	-3.174928e+01	2.545611e-17	-3.174928e+01	3.174928e+01
27            	-2.992085e+01	1.928123e+02	-2.227331e+02	-4.418633e+02	7.973184e+02	-1.239182e+03	1.018250e+03	2.077727e+02	-1.406936e+01	1.409702e-17	-1.406936e+01	1.406936e+01
28            	1.125890e+01	9.692728e+01	-8.566838e+01	-1.941601e+02	3.030400e+02	-4.972001e+02	4.001200e+02	9.129783e+01	5.294152e+00	3.477147e-18	5.294152e+00	-5.294152e+00
29            	2.599394e+01	7.297343e+01	-4.697949e+01	-1.275499e+02	8.814271e+01	-2.156926e+02	1.519177e+02	5.997646e+01	1.222286e+01	4.127090e-18	1.222286e+01	-1.222286e+01
30            	2.951676e+00	1.226721e+02	-1.197204e+02	-2.577441e+02	2.625216e+02	-5.202657e+02	3.913936e+02	1.211963e+02	1.387936e+00	3.267915e-18	1.387936e+00	-1.387936e+00
31            	-3.068407e+01	1.706266e+02	-2.013107e+02	-3.954933e+02	5.215341e+02	-9.170274e+02	7.192808e+02	1.859687e+02	-1.442825e+01	-3.231775e-18	-1.442825e+01	1.442825e+01
32            	-5.046227e+01	1.710000e+02	-2.214623e+02	-4.173182e+02	6.338646e+02	-1.051183e+03	8.425237e+02	1.962311e+02	-2.372834e+01	-9.844937e-18	-2.372834e+01	2.372834e+01
33            	-4.646606e+01	1.338308e+02	-1.802969e+02	-3.340224e+02	5.506537e+02	-8.846761e+02	7.176649e+02	1.570638e+02	-2.184925e+01	-1.242697e-17	-2.184925e+01	2.184925e+01
34            	-3.309621e+01	9.953285e+01	-1.326291e+02	-2.468655e+02	4.076396e+02	-6.545051e+02	5.310723e+02	1.160810e+02	-1.556248e+01	-8.357532e-18	-1.556248e+01	1.556248e+01
35            	-2.204799e+01	8.855730e+01	-1.106053e+02	-2.117762e+02	2.927624e+02	-5.045386e+02	3.986505e+02	9.958129e+01	-1.036739e+01	-3.320872e-18	-1.036739e+01	1.036739e+01
36            	-2.163732e+01	9.191140e+01	-1.135487e+02	-2.184726e+02	2.409166e+02	-4.593892e+02	3.501529e+02	1.027301e+02	-1.017429e+01	-1.343542e-18	-1.017429e+01	1.017429e+01
37            	-3.019907e+01	8.864746e+01	-1.188465e+02	-2.206353e+02	2.313131e+02	-4.519484e+02	3.416307e+02	1.037470e+02	-1.420019e+01	-5.057701e-18	-1.420019e+01	1.420019e+01
38            	-3.747751e+01	7.840365e+01	-1.158812e+02	-2.065895e+02	2.353023e+02	-4.418918e+02	3.385970e+02	9.714240e+01	-1.762266e+01	-8.462306e-18	-1.762266e+01	1.762266e+01
39            	-4.850632e+01	5.530101e+01	-1.038073e+02	-1.691852e+02	2.345754e+02	-4.037606e+02	3.191680e+02	7.955417e+01	-2.280861e+01	-1.433338e-17	-2.280861e+01	2.280861e+01
40            	-5.120311e+01	4.397455e+01	-9.517766e+01	-1.479652e+02	2.259323e+02	-3.738975e+02	2.999149e+02	6.957611e+01	-2.407670e+01	-1.685319e-17	-2.407670e+01	2.407670e+01
41            	-5.105217e+01	3.553405e+01	-8.658622e+01	-1.298545e+02	2.095754e+02	-3.394299e+02	2.745026e+02	6.106013e+01	-2.400572e+01	-1.633674e-17	-2.400572e+01	2.400572e+01
42            	-4.948091e+01	3.635480e+01	-8.583571e+01	-1.299292e+02	1.999287e+02	-3.298579e+02	2.648933e+02	6.109525e+01	-2.326688e+01	-1.494204e-17	-2.326688e+01	2.326688e+01
43            	-4.876492e+01	3.388510e+01	-8.265002e+01	-1.239157e+02	1.787421e+02	-3.026578e+02	2.406999e+02	5.826756e+01	-2.293021e+01	-1.348862e-17	-2.293021e+01	2.293021e+01
44            	-5.041791e+01	1.181211e+01	-6.223002e+01	-7.873146e+01	1.128124e+02	-1.915439e+02	1.521781e+02	3.702106e+01	-2.370748e+01	-1.310505e-17	-2.370748e+01	2.370748e+01
45            	-5.213732e+01	1.692981e+00	-5.383031e+01	-5.903976e+01	8.784907e+01	-1.468888e+02	1.173690e+02	2.776164e+01	-2.451598e+01	-1.365171e-17	-2.451598e+01	2.451598e+01
46            	-5.554838e+01	-8.003581e+00	-4.754480e+01	-4.204550e+01	6.794495e+01	-1.099904e+02	8.896770e+01	1.977061e+01	-2.611993e+01	-1.531992e-17	-2.611993e+01	2.611993e+01
47            	-5.782404e+01	-7.867144e+00	-4.995689e+01	-4.475544e+01	7.045219e+01	-1.152076e+02	9.282991e+01	2.104488e+01	-2.718999e+01	-1.646247e-17	-2.718999e+01	2.718999e+01
48            	-6.006177e+01	-1.874233e+00	-5.818754e+01	-5.987981e+01	8.671752e+01	-1.465973e+02	1.166574e+02	2.815665e+01	-2.824221e+01	-1.742833e-17	-2.824221e+01	2.824221e+01
49            	-6.215445e+01	5.586883e+00	-6.774133e+01	-7.797234e+01	1.089672e+02	-1.869396e+02	1.479534e+02	3.666411e+01	-2.922623e+01	-1.814107e-17	-2.922623e+01	2.922623e+01
50            	-6.353961e+01	1.064631e+01	-7.418592e+01	-9.020494e+01	1.283666e+02	-2.185715e+02	1.734691e+02	4.241612e+01	-2.987756e+01	-1.849478e-17	-2.987756e+01	2.987756e+01
51            	-6.364180e+01	1.177318e+01	-7.541498e+01	-9.271008e+01	1.381107e+02	-2.308208e+02	1.844657e+02	4.359408e+01	-2.992561e+01	-1.847079e-17	-2.992561e+01	2.992561e+01
52            	-6.221442e+01	9.951364e+00	-7.216578e+01	-8.731790e+01	1.364540e+02	-2.237719e+02	1.801130e+02	4.105857e+01	-2.925443e+01	-1.808677e-17	-2.925443e+01	2.925443e+01
53            	-5.942582e+01	8.545855e+00	-6.797168e+01	-8.136364e+01	1.275964e+02	-2.089601e+02	1.682783e+02	3.825876e+01	-2.794318e+01	-1.753856e-17	-2.794318e+01	2.794318e+01
54            	-5.579669e+01	1.091116e+01	-6.670785e+01	-8.253488e+01	1.198886e+02	-2.024235e+02	1.611560e+02	3.880951e+01	-2.623669e+01	-1.696169e-17	-2.623669e+01	2.623669e+01
55            	-5.171555e+01	2.148882e+01	-7.320436e+01	-1.006904e+02	1.286918e+02	-2.293822e+02	1.790370e+02	4.734659e+01	-2.431766e+01	-1.634841e-17	-2.431766e+01	2.431766e+01
56            	-4.844446e+01	4.115644e+01	-8.960090e+01	-1.390386e+02	1.624703e+02	-3.015090e+02	2.319896e+02	6.537867e+01	-2.277953e+01	-1.584884e-17	-2.277953e+01	2.277953e+01
57            	-4.690811e+01	6.346476e+01	-1.103729e+02	-1.848473e+02	2.113939e+02	-3.962412e+02	3.038176e+02	8.691881e+01	-2.205710e+01	-1.558789e-17	-2.205710e+01	2.205710e+01
58            	-4.649381e+01	8.133592e+01	-1.278297e+02	-2.224128e+02	2.615194e+02	-4.839322e+02	3.727258e+02	1.045828e+02	-2.186229e+01	-1.545962e-17	-2.186229e+01	2.186229e+01
59            	-4.595715e+01	9.079165e+01	-1.367488e+02	-2.419513e+02	3.025122e+02	-5.444635e+02	4.234879e+02	1.137702e+02	-2.160994e+01	-1.532266e-17	-2.160994e+01	2.160994e+01
60            	-4.423661e+01	9.237768e+01	-1.366143e+02	-2.434948e+02	3.316228e+02	-5.751176e+02	4.533702e+02	1.144960e+02	-2.080091e+01	-1.498516e-17	-2.080091e+01	2.080091e+01
61            	-4.104748e+01	9.014238e+01	-1.311899e+02	-2.353499e+02	3.508250e+02	-5.861749e+02	4.684999e+02	1.106661e+02	-1.930132e+01	-1.428667e-17	-1.930132e+01	1.930132e+01
62            	-3.704087e+01	8.843672e+01	-1.254776e+02	-2.274622e+02	3.630139e+02	-5.904761e+02	4.767450e+02	1.069572e+02	-1.741734e+01	-1.326732e-17	-1.741734e+01	1.741734e+01
63            	-3.287290e+01	8.928021e+01	-1.221531e+02	-2.248241e+02	3.718221e+02	-5.966462e+02	4.842341e+02	1.057167e+02	-1.545748e+01	-1.198349e-17	-1.545748e+01	1.545748e+01
64            	-2.891215e+01	9.375622e+01	-1.226684e+02	-2.301315e+02	3.826457e+02	-6.127772e+02	4.977114e+02	1.082123e+02	-1.359506e+01	-1.056660e-17	-1.359506e+01	1.359506e+01
65            	-2.532908e+01	1.023391e+02	-1.276682e+02	-2.445745e+02	4.013288e+02	-6.459033e+02	5.236160e+02	1.150037e+02	-1.191022e+01	-9.142288e-18	-1.191022e+01	1.191022e+01
66            	-2.233188e+01	1.155524e+02	-1.378843e+02	-2.694876e+02	4.341212e+02	-7.036088e+02	5.688650e+02	1.267183e+02	-1.050089e+01	-7.887417e-18	-1.050089e+01	1.050089e+01
67            	-2.042582e+01	1.295704e+02	-1.499962e+02	-2.972724e+02	4.735517e+02	-7.708241e+02	6.221879e+02	1.397833e+02	-9.604617e+00	-7.060474e-18	-9.604617e+00	9.604617e+00
68            	-1.925010e+01	1.404735e+02	-1.597236e+02	-3.192097e+02	5.093150e+02	-8.285247e+02	6.689198e+02	1.500986e+02	-9.051770e+00	-6.596676e-18	-9.051770e+00	9.051770e+00
69            	-1.817104e+01	1.479847e+02	-1.661557e+02	-3.340360e+02	5.383628e+02	-8.723988e+02	7.053808e+02	1.570702e+02	-8.544377e+00	-6.286827e-18	-8.544377e+00	8.544377e+00
70            	-1.673140e+01	1.524775e+02	-1.692089e+02	-3.420599e+02	5.588801e+02	-9.009400e+02	7.299100e+02	1.608432e+02	-7.867429e+00	-5.913643e-18	-7.867429e+00	7.867429e+00
71            	-1.458817e+01	1.556556e+02	-1.702438e+02	-3.465397e+02	5.737284e+02	-9.202681e+02	7.469983e+02	1.629497e+02	-6.859642e+00	-5.329209e-18	-6.859642e+00	6.859642e+00
72            	-1.194623e+01	1.583454e+02	-1.702916e+02	-3.494507e+02	5.838443e+02	-9.332950e+02	7.585697e+02	1.643185e+02	-5.617348e+00	-4.480664e-18	-5.617348e+00	5.617348e+00
73            	-9.150518e+00	1.613996e+02	-1.705501e+02	-3.529731e+02	5.915008e+02	-9.444739e+02	7.679873e+02	1.659748e+02	-4.302751e+00	-3.514911e-18	-4.302751e+00	4.302751e+00
74            	-6.548003e+00	1.652397e+02	-1.717877e+02	-3.583724e+02	5.989783e+02	-9.573507e+02	7.781645e+02	1.685137e+02	-3.078998e+00	-2.523213e-18	-3.078998e+00	3.078998e+00
75            	-4.459299e+00	1.694329e+02	-1.738922e+02	-3.650690e+02	6.069878e+02	-9.720568e+02	7.895223e+02	1.716625e+02	-2.096849e+00	-1.612009e-18	-2.096849e+00	2.096849e+00
76            	-2.953713e+00	1.739331e+02	-1.768868e+02	-3.730384e+02	6.170544e+02	-9.900928e+02	8.035736e+02	1.754099e+02	-1.388893e+00	-8.157768e-19	-1.388893e+00	1.388893e+00
77            	-2.105839e+00	1.778862e+02	-1.799921e+02	-3.805439e+02	6.277099e+02	-1.008254e+03	8.179819e+02	1.789391e+02	-9.902066e-01	-1.843344e-19	-9.902066e-01	9.902066e-01
78            	-1.777577e+00	1.806077e+02	-1.823853e+02	-3.859825e+02	6.370216e+02	-1.023004e+03	8.300129e+02	1.814965e+02	-8.358515e-01	2.615794e-19	-8.358515e-01	8.358515e-01
79            	-1.540305e+00	1.827013e+02	-1.842416e+02	-3.901826e+02	6.464758e+02	-1.036658e+03	8.415671e+02	1.834714e+02	-7.242813e-01	7.869669e-19	-7.242813e-01	7.242813e-01
80            	-1.604488e+00	1.822067e+02	-1.838112e+02	-3.891991e+02	6.470545e+02	-1.036254e+03	8.416540e+02	1.830090e+02	-7.544615e-01	8.841731e-19	-7.544615e-01	7.544615e-01
81            	-1.558818e+00	1.805202e+02	-1.820790e+02	-3.855638e+02	6.438519e+02	-1.029416e+03	8.366338e+02	1.812996e+02	-7.329865e-01	9.705070e-19	-7.329865e-01	7.329865e-01
82            	-1.172398e+00	1.786051e+02	-1.797775e+02	-3.810802e+02	6.387551e+02	-1.019835e+03	8.292952e+02	1.791913e+02	-5.512843e-01	1.136425e-18	-5.512843e-01	5.512843e-01
83            	-7.856047e-02	1.771055e+02	-1.771841e+02	-3.767279e+02	6.312541e+02	-1.007982e+03	8.196181e+02	1.771448e+02	-3.694066e-02	1.564810e-18	-3.694066e-02	3.694066e-02
84            	6.950639e-01	1.774528e+02	-1.767577e+02	-3.766438e+02	6.276402e+02	-1.004284e+03	8.159621e+02	1.771052e+02	3.268325e-01	1.938598e-18	3.268325e-01	-3.268325e-01
85            	1.508498e+00	1.792718e+02	-1.777633e+02	-3.796473e+02	6.258480e+02	-1.005495e+03	8.156716e+02	1.785175e+02	7.093252e-01	2.380226e-18	7.093252e-01	-7.093252e-01
86            	2.472520e+00	1.837156e+02	-1.812431e+02	-3.880727e+02	6.269281e+02	-1.015001e+03	8.209644e+02	1.824793e+02	1.162627e+00	3.044788e-18	1.162627e+00	-1.162627e+00
87            	2.914544e+00	1.862536e+02	-1.833390e+02	-3.930001e+02	6.269038e+02	-1.019904e+03	8.234039e+02	1.847963e+02	1.370475e+00	3.377734e-18	1.370475e+00	-1.370475e+00
88            	3.227533e+00	1.894993e+02	-1.862718e+02	-3.995700e+02	6.270910e+02	-1.026661e+03	8.268760e+02	1.878856e+02	1.517649e+00	3.809930e-18	1.517649e+00	-1.517649e+00
89            	3.474307e+00	1.905495e+02	-1.870752e+02	-4.015410e+02	6.248101e+02	-1.026351e+03	8.255806e+02	1.888124e+02	1.633687e+00	3.949220e-18	1.633687e+00	-1.633687e+00
90            	3.791834e+00	1.911483e+02	-1.873564e+02	-4.024766e+02	6.212380e+02	-1.023715e+03	8.224764e+02	1.892523e+02	1.782994e+00	4.112972e-18	1.782994e+00	-1.782994e+00
91            	4.221879e+00	1.921148e+02	-1.878929e+02	-4.040748e+02	6.155171e+02	-1.019592e+03	8.175545e+02	1.900038e+02	1.985209e+00	4.368883e-18	1.985209e+00	-1.985209e+00
92            	4.398481e+00	1.928878e+02	-1.884893e+02	-4.055310e+02	6.108587e+02	-1.016390e+03	8.136242e+02	1.906886e+02	2.068251e+00	4.443966e-18	2.068251e+00	-2.068251e+00
93            	4.390836e+00	1.938738e+02	-1.894830e+02	-4.076361e+02	6.053936e+02	-1.013030e+03	8.092116e+02	1.916784e+02	2.064657e+00	4.432791e-18	2.064657e+00	-2.064657e+00
94            	3.872262e+00	1.954089e+02	-1.915367e+02	-4.114521e+02	5.971477e+02	-1.008600e+03	8.028738e+02	1.934728e+02	1.820813e+00	4.256040e-18	1.820813e+00	-1.820813e+00
95            	3.395142e+00	1.958409e+02	-1.924457e+02	-4.128781e+02	5.899548e+02	-1.002833e+03	7.963939e+02	1.941433e+02	1.596462e+00	4.078911e-18	1.596462e+00	-1.596462e+00
96            	2.616597e+00	1.956661e+02	-1.930495e+02	-4.133342e+02	5.817107e+02	-9.950449e+02	7.883778e+02	1.943578e+02	1.230375e+00	3.781740e-18	1.230375e+00	-1.230375e+00
97            	1.520500e+00	1.949957e+02	-1.934752e+02	-4.130741e+02	5.722589e+02	-9.853330e+02	7.787960e+02	1.942355e+02	7.149686e-01	3.381536e-18	7.149686e-01	-7.149686e-01
98            	1.656813e-01	1.938540e+02	-1.936883e+02	-4.120867e+02	5.615645e+02	-9.736511e+02	7.676078e+02	1.937712e+02	7.790656e-02	2.887143e-18	7.790656e-02	-7.790656e-02
99            	-1.369478e+00	1.920535e+02	-1.934229e+02	-4.098899e+02	5.492797e+02	-9.591696e+02	7.542247e+02	1.927382e+02	-6.439551e-01	2.323441e-18	-6.439551e-01	6.439551e-01
100           	-3.076367e+00	1.895614e+02	-1.926378e+02	-4.064052e+02	5.356782e+02	-9.420834e+02	7.388808e+02	1.910996e+02	-1.446568e+00	1.663824e-18	-1.446568e+00	1.446568e+00
101           	-4.986343e+00	1.863867e+02	-1.913731e+02	-4.016846e+02	5.210578e+02	-9.227424e+02	7.219001e+02	1.888799e+02	-2.344675e+00	8.955580e-19	-2.344675e+00	2.344675e+00
102           	-7.033914e+00	1.826878e+02	-1.897217e+02	-3.959954e+02	5.061997e+02	-9.021951e+02	7.041974e+02	1.862047e+02	-3.307483e+00	2.321382e-20	-3.307483e+00	3.307483e+00
103           	-9.099276e+00	1.785035e+02	-1.876028e+02	-3.892930e+02	4.913248e+02	-8.806179e+02	6.859714e+02	1.830531e+02	-4.278657e+00	-8.958341e-19	-4.278657e+00	4.278657e+00
104           	-1.117175e+01	1.736603e+02	-1.848321e+02	-3.811969e+02	4.759076e+02	-8.571045e+02	6.665061e+02	1.792462e+02	-5.253174e+00	-1.845125e-18	-5.253174e+00	5.253174e+00
105           	-1.335344e+01	1.680976e+02	-1.814510e+02	-3.716867e+02	4.594793e+02	-8.311660e+02	6.453227e+02	1.747743e+02	-6.279049e+00	-2.820203e-18	-6.279049e+00	6.279049e+00
106           	-1.617055e+01	1.594021e+02	-1.755726e+02	-3.561898e+02	4.359123e+02	-7.921021e+02	6.140072e+02	1.674874e+02	-7.603706e+00	-4.104533e-18	-7.603706e+00	7.603706e+00
107           	-1.807945e+01	1.549583e+02	-1.730377e+02	-3.487691e+02	4.239397e+02	-7.727088e+02	5.983242e+02	1.639980e+02	-8.501310e+00	-4.824901e-18	-8.501310e+00	8.501310e+00
108           	-2.057753e+01	1.499243e+02	-1.705018e+02	-3.407198e+02	4.110824e+02	-7.518022e+02	5.814423e+02	1.602131e+02	-9.675952e+00	-5.719039e-18	-9.675952e+00	9.675952e+00
109           	-2.482302e+01	1.401513e+02	-1.649743e+02	-3.244503e+02	3.874684e+02	-7.119187e+02	5.496935e+02	1.525628e+02	-1.167227e+01	-7.147139e-18	-1.167227e+01	1.167227e+01
110           	-2.767500e+01	1.336745e+02	-1.613495e+02	-3.137089e+02	3.728327e+02	-6.865416e+02	5.296872e+02	1.475120e+02	-1.301332e+01	-8.053732e-18	-1.301332e+01	1.301332e+01
111           	-3.102249e+01	1.259818e+02	-1.570043e+02	-3.009085e+02	3.568334e+02	-6.577419e+02	5.072876e+02	1.414930e+02	-1.458738e+01	-9.125368e-18	-1.458738e+01	1.458738e+01
112           	-3.503365e+01	1.167855e+02	-1.518191e+02	-2.856162e+02	3.384352e+02	-6.240514e+02	4.812433e+02	1.343023e+02	-1.647350e+01	-1.037208e-17	-1.647350e+01	1.647350e+01
113           	-3.927638e+01	1.066260e+02	-1.459024e+02	-2.685219e+02	3.184673e+02	-5.869892e+02	4.527282e+02	1.262642e+02	-1.846852e+01	-1.167801e-17	-1.846852e+01	1.846852e+01
114           	-4.342027e+01	9.615733e+01	-1.395776e+02	-2.506648e+02	2.980557e+02	-5.487205e+02	4.233881e+02	1.178675e+02	-2.041705e+01	-1.293095e-17	-2.041705e+01	2.041705e+01
115           	-4.754832e+01	8.558243e+01	-1.331308e+02	-2.325650e+02	2.772367e+02	-5.098017e+02	3.935192e+02	1.093566e+02	-2.235815e+01	-1.413848e-17	-2.235815e+01	2.235815e+01
116           	-5.173606e+01	7.536871e+01	-1.271048e+02	-2.152968e+02	2.567640e+02	-4.720608e+02	3.644124e+02	1.012367e+02	-2.432730e+01	-1.531222e-17	-2.432730e+01	2.432730e+01
117           	-5.591568e+01	6.611544e+01	-1.220311e+02	-2.000625e+02	2.379550e+02	-4.380175e+02	3.379863e+02	9.407327e+01	-2.629264e+01	-1.645011e-17	-2.629264e+01	2.629264e+01
118           	-5.998735e+01	5.816528e+01	-1.181526e+02	-1.874847e+02	2.216620e+02	-4.091467e+02	3.154043e+02	8.815896e+01	-2.820722e+01	-1.752787e-17	-2.820722e+01	2.820722e+01
119           	-6.386714e+01	5.155065e+01	-1.154178e+02	-1.775431e+02	2.079520e+02	-3.854951e+02	2.967235e+02	8.348422e+01	-3.003157e+01	-1.853588e-17	-3.003157e+01	3.003157e+01
120           	-6.739288e+01	4.630311e+01	-1.136960e+02	-1.701324e+02	1.968967e+02	-3.670291e+02	2.819629e+02	7.999955e+01	-3.168944e+01	-1.945383e-17	-3.168944e+01	3.168944e+01
121           	-7.040480e+01	4.240391e+01	-1.128087e+02	-1.650427e+02	1.884312e+02	-3.534739e+02	2.709526e+02	7.760631e+01	-3.310570e+01	-2.027946e-17	-3.310570e+01	3.310570e+01
122           	-7.278280e+01	3.977207e+01	-1.125549e+02	-1.619743e+02	1.823994e+02	-3.443737e+02	2.633865e+02	7.616347e+01	-3.422389e+01	-2.099885e-17	-3.422389e+01	3.422389e+01
123           	-7.438342e+01	3.837904e+01	-1.127625e+02	-1.607138e+02	1.789225e+02	-3.396363e+02	2.592794e+02	7.557075e+01	-3.497653e+01	-2.159092e-17	-3.497653e+01	3.497653e+01
124           	-7.510737e+01	3.815225e+01	-1.132596e+02	-1.610013e+02	1.780760e+02	-3.390773e+02	2.585766e+02	7.570593e+01	-3.531694e+01	-2.201505e-17	-3.531694e+01	3.531694e+01
125           	-7.489983e+01	3.907798e+01	-1.139778e+02	-1.627493e+02	1.796440e+02	-3.423933e+02	2.610186e+02	7.652789e+01	-3.521936e+01	-2.224584e-17	-3.521936e+01	3.521936e+01
126           	-7.352119e+01	4.150528e+01	-1.150265e+02	-1.664454e+02	1.827947e+02	-3.492402e+02	2.660174e+02	7.826587e+01	-3.457109e+01	-2.238184e-17	-3.457109e+01	3.457109e+01
127           	-7.194313e+01	4.451408e+01	-1.164572e+02	-1.711661e+02	1.858094e+02	-3.569756e+02	2.713925e+02	8.048564e+01	-3.382906e+01	-2.233878e-17	-3.382906e+01	3.382906e+01
128           	-6.960977e+01	4.991179e+01	-1.195216e+02	-1.801641e+02	1.907363e+02	-3.709005e+02	2.808184e+02	8.471668e+01	-3.273187e+01	-2.215568e-17	-3.273187e+01	3.273187e+01
129           	-6.717431e+01	5.757838e+01	-1.247527e+02	-1.938787e+02	1.980414e+02	-3.919201e+02	2.949808e+02	9.116554e+01	-3.158667e+01	-2.193301e-17	-3.158667e+01	3.158667e+01
130           	-6.524083e+01	6.946474e+01	-1.347056e+02	-2.171011e+02	2.141992e+02	-4.313003e+02	3.227497e+02	1.020851e+02	-3.067750e+01	-2.180820e-17	-3.067750e+01	3.067750e+01
131           	-6.420392e+01	7.563752e+01	-1.398414e+02	-2.291260e+02	2.235505e+02	-4.526765e+02	3.381135e+02	1.077395e+02	-3.018993e+01	-2.166363e-17	-3.018993e+01	3.018993e+01
132           	-6.303181e+01	7.553805e+01	-1.385699e+02	-2.276681e+02	2.244869e+02	-4.521550e+02	3.383209e+02	1.070540e+02	-2.963878e+01	-2.127385e-17	-2.963878e+01	2.963878e+01
133           	-6.108853e+01	7.176095e+01	-1.328495e+02	-2.175691e+02	2.207919e+02	-4.383609e+02	3.295764e+02	1.023052e+02	-2.872501e+01	-2.062504e-17	-2.872501e+01	2.872501e+01
134           	-5.864392e+01	6.700406e+01	-1.256480e+02	-2.048533e+02	2.165285e+02	-4.213819e+02	3.189552e+02	9.632603e+01	-2.757551e+01	-1.986446e-17	-2.757551e+01	2.757551e+01
135           	-5.613896e+01	6.388858e+01	-1.200275e+02	-1.955642e+02	2.162598e+02	-4.118240e+02	3.140419e+02	9.195807e+01	-2.639763e+01	-1.911796e-17	-2.639763e+01	2.639763e+01
136           	-5.438195e+01	6.349579e+01	-1.178777e+02	-1.928605e+02	2.204917e+02	-4.133522e+02	3.169220e+02	9.068676e+01	-2.557145e+01	-1.857325e-17	-2.557145e+01	2.557145e+01
137           	-5.076664e+01	6.508185e+01	-1.158485e+02	-1.923893e+02	2.329907e+02	-4.253800e+02	3.291854e+02	9.046517e+01	-2.387146e+01	-1.749428e-17	-2.387146e+01	2.387146e+01
138           	-4.747425e+01	6.723578e+01	-1.147100e+02	-1.934690e+02	2.478871e+02	-4.413561e+02	3.446216e+02	9.097290e+01	-2.232331e+01	-1.646787e-17	-2.232331e+01	2.232331e+01
139           	-4.550332e+01	6.778138e+01	-1.132847e+02	-1.925336e+02	2.568476e+02	-4.493812e+02	3.531144e+02	9.053304e+01	-2.139654e+01	-1.578203e-17	-2.139654e+01	2.139654e+01
140           	-4.139430e+01	7.079149e+01	-1.121858e+02	-1.945658e+02	2.785467e+02	-4.731125e+02	3.758296e+02	9.148864e+01	-1.946440e+01	-1.430282e-17	-1.946440e+01	1.946440e+01
141           	-3.756478e+01	7.372427e+01	-1.112890e+02	-1.967308e+02	3.002267e+02	-4.969576e+02	3.985921e+02	9.250666e+01	-1.766369e+01	-1.292590e-17	-1.766369e+01	1.766369e+01
142           	-3.518897e+01	7.483355e+01	-1.100225e+02	-1.965636e+02	3.122561e+02	-5.088197e+02	4.105379e+02	9.242804e+01	-1.654654e+01	-1.207067e-17	-1.654654e+01	1.654654e+01
143           	-3.054990e+01	8.097854e+01	-1.115284e+02	-2.046991e+02	3.400875e+02	-5.447865e+02	4.424370e+02	9.625349e+01	-1.436516e+01	-1.039895e-17	-1.436516e+01	1.436516e+01
144           	-2.648101e+01	8.783806e+01	-1.143191e+02	-2.149604e+02	3.674678e+02	-5.824282e+02	4.749480e+02	1.010786e+02	-1.245188e+01	-8.926986e-18	-1.245188e+01	1.245188e+01
145           	-2.432819e+01	9.095964e+01	-1.152878e+02	-2.193098e+02	3.803696e+02	-5.996794e+02	4.900245e+02	1.031237e+02	-1.143959e+01	-8.100515e-18	-1.143959e+01	1.143959e+01
146           	-2.001961e+01	1.015027e+02	-1.215223e+02	-2.371499e+02	4.131153e+02	-6.502651e+02	5.316902e+02	1.115125e+02	-9.413608e+00	-6.512849e-18	-9.413608e+00	9.413608e+00
147           	-1.752229e+01	1.071557e+02	-1.246780e+02	-2.465165e+02	4.307910e+02	-6.773075e+02	5.540492e+02	1.159169e+02	-8.239321e+00	-5.552952e-18	-8.239321e+00	8.239321e+00
148           	-1.316770e+01	1.200191e+02	-1.331868e+02	-2.692424e+02	4.674538e+02	-7.366962e+02	6.020750e+02	1.266030e+02	-6.191709e+00	-3.938190e-18	-6.191709e+00	6.191709e+00
149           	-1.100441e+01	1.260633e+02	-1.370677e+02	-2.797960e+02	4.843237e+02	-7.641196e+02	6.242217e+02	1.315655e+02	-5.174489e+00	-3.127114e-18	-5.174489e+00	5.174489e+00
150           	-7.517213e+00	1.375345e+02	-1.450517e+02	-3.004834e+02	5.144604e+02	-8.149438e+02	6.647021e+02	1.412931e+02	-3.534740e+00	-1.825876e-18	-3.534740e+00	3.534740e+00
151           	-4.840317e+00	1.468835e+02	-1.517238e+02	-3.175190e+02	5.379245e+02	-8.554436e+02	6.966840e+02	1.493036e+02	-2.276011e+00	-8.637842e-19	-2.276011e+00	2.276011e+00
152           	-3.525650e+00	1.517942e+02	-1.553198e+02	-3.265646e+02	5.490750e+02	-8.756396e+02	7.123573e+02	1.535570e+02	-1.657829e+00	-3.618579e-19	-1.657829e+00	1.657829e+00
153           	-9.188755e-01	1.599918e+02	-1.609107e+02	-3.412263e+02	5.685524e+02	-9.097787e+02	7.391656e+02	1.604512e+02	-4.320731e-01	6.773379e-19	-4.320731e-01	4.320731e-01
154           	1.233519e+00	1.677860e+02	-1.665525e+02	-3.555133e+02	5.862786e+02	-9.417919e+02	7.640353e+02	1.671693e+02	5.800248e-01	1.568993e-18	5.800248e-01	-5.800248e-01
155           	2.006049e+00	1.718356e+02	-1.698296e+02	-3.633040e+02	5.941409e+02	-9.574448e+02	7.757929e+02	1.708326e+02	9.432832e-01	1.935174e-18	9.432832e-01	-9.432832e-01
156           	3.516894e+00	1.791129e+02	-1.755960e+02	-3.771737e+02	6.088192e+02	-9.859929e+02	7.974060e+02	1.773544e+02	1.653712e+00	2.689160e-18	1.653712e+00	-1.653712e+00
157           	4.619988e+00	1.852729e+02	-1.806529e+02	-3.891010e+02	6.206175e+02	-1.009719e+03	8.151680e+02	1.829629e+02	2.172408e+00	3.265350e-18	2.172408e+00	-2.172408e+00
158           	4.894492e+00	1.870720e+02	-1.821775e+02	-3.926353e+02	6.229505e+02	-1.015586e+03	8.192681e+02	1.846248e+02	2.301485e+00	3.477382e-18	2.301485e+00	-2.301485e+00
159           	5.271559e+00	1.918468e+02	-1.865753e+02	-4.023888e+02	6.311579e+02	-1.033547e+03	8.323523e+02	1.892110e+02	2.478789e+00	3.751608e-18	2.478789e+00	-2.478789e+00
160           	5.266473e+00	1.934201e+02	-1.881536e+02	-4.057400e+02	6.327976e+02	-1.038538e+03	8.356676e+02	1.907868e+02	2.476398e+00	3.810792e-18	2.476398e+00	-2.476398e+00
161           	4.996842e+00	1.963297e+02	-1.913329e+02	-4.122146e+02	6.358435e+02	-1.048058e+03	8.419508e+02	1.938313e+02	2.349612e+00	3.841009e-18	2.349612e+00	-2.349612e+00
162           	4.587166e+00	1.969448e+02	-1.923576e+02	-4.139582e+02	6.346564e+02	-1.048615e+03	8.416355e+02	1.946512e+02	2.156975e+00	3.756758e-18	2.156975e+00	-2.156975e+00
163           	3.448364e+00	1.960538e+02	-1.926054e+02	-4.132742e+02	6.280932e+02	-1.041367e+03	8.347303e+02	1.943296e+02	1.621488e+00	3.553353e-18	1.621488e+00	-1.621488e+00
164           	2.613186e+00	1.947721e+02	-1.921589e+02	-4.114366e+02	6.222400e+02	-1.033677e+03	8.279583e+02	1.934655e+02	1.228771e+00	3.354376e-18	1.228771e+00	-1.228771e+00
165           	7.953182e-01	1.912274e+02	-1.904321e+02	-4.058313e+02	6.087367e+02	-1.014568e+03	8.116523e+02	1.908298e+02	3.739741e-01	2.938351e-18	3.739741e-01	-3.739741e-01