/*--------------------------------*- C++ -*----------------------------------*\
| =========                 |                                                 |
| \\      /  F ield         | OpenFOAM: The Open Source CFD Toolbox           |
|  \\    /   O peration     | Version:  2312                                  |
|   \\  /    A nd           | Website:  www.openfoam.com                      |
|    \\/     M anipulation  |                                                 |
\*---------------------------------------------------------------------------*/
FoamFile
{
    version     2.0;
    format      ascii;
    arch        "LSB;label=32;scalar=64";
    class       volScalarField;
    location    "50";
    object      div(phi);
}
// * * * * * * * * * * * * * * * * * * * * * * * * * * * * * * * * * * * * * //

dimensions      [0 0 -1 0 0 0 0];

internalField   nonuniform List<scalar> 
11040
(
-0.376182
-0.291766
-0.27927
-0.117296
0.108039
-0.0984306
-1.358
-1.39375
0.253776
0.187361
-1.53909
-1.21901
-0.332713
-1.03385
-0.41527
-0.710318
0.0396263
0.0742889
-0.114524
0.0776979
-0.688967
-0.982261
-0.706592
-0.544588
0.291201
-0.832103
0.861417
-1.0435
0.912768
-0.540839
0.993305
-0.185018
0.752499
0.33476
0.880013
0.767111
0.945265
1.03454
0.513876
2.28407
3.24323
-0.124917
-0.119836
-0.184914
-0.181807
0.00485377
-0.276984
-0.659248
-0.229715
0.295298
-0.00985594
-0.464476
-0.474006
-0.334577
-0.0238026
0.0341945
-0.0934945
-0.0569843
-0.353924
-0.367832
-0.987185
-1.15481
-1.30506
-1.45296
-1.8474
-1.21092
-1.61857
-0.27467
-0.910571
0.578607
0.21264
1.26439
0.877903
1.34009
1.1849
1.2816
1.23036
1.31908
1.38532
1.64865
2.22604
2.44218
-0.141835
-0.0436259
0.00657057
0.0575917
0.0816833
-0.0267079
-0.496456
-0.402932
0.174494
0.28589
-0.207914
-0.245428
0.107599
-0.179593
-0.073194
-0.12402
0.0354049
0.129593
-0.0696703
0.187665
0.0266598
-0.1573
0.0357367
0.214284
0.406144
-0.0390571
0.518364
-0.244083
0.433549
-0.21275
0.327881
-0.164178
0.200529
0.002243
0.252191
0.135514
0.221963
0.121953
-0.073753
0.341385
0.404275
-0.082163
-0.0117789
-0.00821992
0.0135421
0.00252535
-0.223738
-0.488674
-0.143547
0.0720247
-0.0323997
-0.180236
-0.198622
-0.237497
-0.2136
-0.171702
-0.137399
-0.111949
-0.219463
-0.301254
-0.499042
-0.576756
-0.677952
-0.733312
-0.88367
-0.672465
-0.717984
-0.24279
-0.289065
0.235618
0.241149
0.589618
0.526735
0.668132
0.62141
0.638327
0.621112
0.626971
0.683166
0.752332
0.939233
0.859531
-0.0412736
-0.044263
-0.00669385
0.00018748
0.0053302
-0.102053
-0.244433
-0.158355
0.0387207
0.0706805
-0.0913263
-0.123369
-0.0170919
-0.049397
-0.0439912
-0.0547625
-0.00885643
-0.00103849
-0.0783166
0.0415261
0.0376946
-0.00965117
0.0491652
0.154075
0.135475
0.116893
0.12398
0.0800146
0.125035
0.0846738
0.121293
0.0842112
0.124719
0.122371
0.162821
0.157392
0.16523
0.133388
0.106646
0.18693
0.216114
-0.11908
0.00597751
-0.0176534
0.0529108
0.0188762
-0.0478102
-0.10494
-0.0442201
0.038951
-0.0356285
-0.0953819
-0.096185
-0.106456
-0.134207
-0.11302
-0.104396
-0.104912
-0.129212
-0.177985
-0.207826
-0.256491
-0.276058
-0.318545
-0.305541
-0.287908
-0.196965
-0.128035
0.000959585
0.0710514
0.192485
0.2208
0.277688
0.281521
0.293955
0.303288
0.288943
0.317586
0.293506
0.361895
0.351312
0.359841
0.0147985
-0.0396666
0.0683232
0.0258953
-0.00601514
-0.0296757
-0.0504525
-0.038018
-0.0319869
-0.0391731
-0.101287
-0.085546
-0.077392
-0.065073
-0.0696884
-0.067251
-0.0651659
-0.0640567
-0.0825372
-0.0431418
-0.0133935
-0.0353773
-0.0157667
0.0119008
0.0475256
0.0220087
0.0672648
0.0467219
0.108104
0.0857049
0.133284
0.116876
0.150105
0.149713
0.168317
0.182054
0.174995
0.193116
0.16164
0.198939
0.164682
-0.0529954
0.0379651
0.0408305
-0.0128712
0.000128974
-0.0492982
-0.0274523
-0.018508
0.00817797
-0.0280715
-0.0370008
-0.0410282
-0.0626057
-0.0859693
-0.0714688
-0.0768799
-0.0629462
-0.0763939
-0.0761416
-0.0785187
-0.0854465
-0.101653
-0.0861639
-0.0736592
-0.0562321
-0.0419484
0.0146918
0.0182951
0.0727576
0.073604
0.114148
0.108178
0.135429
0.133271
0.148977
0.149861
0.147792
0.144682
0.138864
0.148204
0.12362
-0.0204228
0.0674212
-0.0396172
0.0308523
-0.0558552
-0.00694311
-0.0146607
0.01765
0.00475372
0.0125977
-0.00700938
-0.0660429
-0.0836436
-0.0990368
-0.0914079
-0.0698085
-0.0718663
-0.0611295
-0.0635646
-0.0480874
-0.0478504
-0.0449668
-0.0460538
-0.015435
-0.00866784
0.0401663
0.0149501
0.0737411
0.0433423
0.0918038
0.0647276
0.102459
0.088564
0.110601
0.114092
0.119695
0.134507
0.11776
0.139142
0.108197
0.126217
0.0313033
-0.0347247
0.0318743
-0.0460906
-0.00260447
-0.0153541
0.0100511
0.00521302
0.0134584
0.00760783
-0.0221188
-0.029251
-0.0602797
-0.0806116
-0.0444256
-0.0589787
-0.0305925
-0.0179307
-0.0383889
-0.0255782
-0.0350383
-0.0288217
-0.0143355
0.00373818
0.032557
-0.0254617
0.118802
-0.0199669
0.123693
-0.0111689
0.106052
0.0112608
0.0820373
0.0439766
0.0669348
0.0769804
0.0507051
0.0921372
0.0364656
0.103222
0.0346376
-0.00553048
-0.00279391
-0.0184055
-0.0182208
-0.0143671
-0.00935423
-0.0038603
-0.000607607
0.00278602
-0.00982938
-0.00588917
-0.00806998
-0.018479
0.0025061
-0.0284541
-0.00571573
0.0114815
-0.0440758
-0.0188423
-0.0450453
-0.0309572
-0.0303938
-0.010726
0.0144791
-0.0495903
0.0794991
-0.0518112
0.130755
-0.0467533
0.11726
-0.0337312
0.0795553
-0.00262877
0.0403181
0.0320536
-0.000608703
0.0601742
-0.0378653
0.080749
-0.0591163
0.0955499
-0.0109101
-0.00757574
-0.0159024
-0.0162731
-0.0153825
-0.0151771
-0.0108526
-0.00995987
-0.00818802
-0.00869828
-0.00185
-0.00786503
0.0110157
-0.000495931
0.00238495
0.0158669
-0.0323089
0.00438078
-0.0327752
-0.0120227
-0.0195557
-9.94292e-05
0.0127325
-0.00997636
-0.00992354
-0.0183866
0.02873
0.00666975
0.0444697
0.0149436
0.0355381
0.0247074
0.0180544
0.0353142
-0.00390085
0.0496227
-0.0322361
0.0580328
-0.0595673
0.0824204
-0.0808388
-0.0110429
-0.00582205
-0.0131088
-0.00874198
-0.0127932
-0.00991379
-0.0105896
-0.0097186
-0.0108062
-0.00648632
-0.00767974
0.00145997
0.00369323
-0.00233057
0.00795357
-0.0137865
0.0139844
-0.00912429
0.00948816
0.00302461
0.0250054
0.0136025
0.0521994
-0.0617712
0.0505025
-0.107239
0.0926393
-0.0850008
0.117004
-0.05771
0.103091
-0.0237544
0.073492
0.0143105
0.0449182
0.0464321
0.0113203
0.0711949
-0.000308171
0.0926834
-0.0066713
-0.0084659
-0.00262934
-0.00988668
-0.00317744
-0.00966167
-0.00453328
-0.00845542
-0.00618141
-0.00888163
-0.00713394
-0.00938491
-0.00201792
-0.00678982
-0.00158412
-0.00657525
0.00292207
-0.00347147
0.00721902
0.0067404
0.0230438
0.00446728
0.0505784
-0.0350636
0.0700529
-0.133885
0.108202
-0.14107
0.146647
-0.110153
0.14719
-0.0485431
0.102176
0.0280133
0.0500922
0.108249
-0.0146095
0.190012
-0.0763317
0.275066
-0.138563
0.341698
-0.00567509
-0.00150146
-0.00690305
-0.00133887
-0.00732943
-0.0021063
-0.00638184
-0.00430609
-0.00670471
-0.00568947
-0.00796991
-0.00437768
-0.00800039
-0.00443948
-0.00824275
-0.0069788
-0.00312119
-0.00143961
0.00504513
-0.000924205
0.0113621
0.002159
0.0176922
-0.0271436
0.0156562
-0.0365579
0.0316706
-0.027562
0.053585
0.00125381
0.0572459
0.0375658
0.049472
0.0713362
0.0348382
0.0956656
0.0141252
0.10903
0.000186341
0.122325
-0.0198701
-0.00388175
-0.000765607
-0.00453715
-0.000751327
-0.0049356
-0.000913071
-0.00425391
-0.00164959
-0.00371872
-0.00285087
-0.00402861
-0.00271829
-0.00491099
-0.00312004
-0.00639285
-0.00477132
-0.00606375
-0.00570141
-0.00228291
-0.00496664
0.00327702
-0.00643923
0.0108865
-0.0129841
0.0152085
-0.0179945
0.0220608
-0.013923
0.0281973
-0.00189596
0.0279685
0.0140042
0.0210319
0.0334371
0.0101003
0.0462346
-0.00416724
0.0593761
-0.0188107
0.070838
-0.0270122
-0.00236623
-0.0004423
-0.00232077
-0.000392261
-0.00214242
-0.000370362
-0.00137231
-0.000590918
-0.000473917
-0.00130076
-0.000255796
-0.00176292
-0.000760093
-0.001895
-0.00134474
-0.00244285
-0.00115876
-0.00339669
0.00121586
-0.00439102
0.00622023
-0.00625139
0.013
-0.0105552
0.0183571
-0.0148926
0.0208598
-0.0161181
0.0203334
-0.0123636
0.0147201
-0.00365687
0.00539306
0.00813004
-0.00608382
0.0193905
-0.0186132
0.0300501
-0.0298089
0.0423626
-0.0358879
-0.00146476
-0.000672446
-0.00109382
-0.000941037
-0.000849638
-0.00112409
-0.000174897
-0.00126878
0.000671021
-0.00160887
0.00112864
-0.00178884
0.00125918
-0.00149589
0.00153867
-0.00107958
0.00242477
-0.000918641
0.00439244
-0.00132442
0.00794652
-0.00275202
0.0128412
-0.00590701
0.0163748
-0.00981944
0.0173738
-0.0118264
0.0154165
-0.0101264
0.0105495
-0.00424644
0.00356155
0.00432088
-0.00421441
0.0127309
-0.0118611
0.0202596
-0.0188107
0.0283851
-0.023089
-0.000936129
-0.000627479
-0.000160649
-0.000514666
0.000413842
-0.000489941
0.00127937
-0.000484094
0.00225393
-0.000668309
0.00285035
-0.0008563
0.00322358
-0.000662044
0.00349831
-0.000204215
0.00420662
0.000142411
0.00540963
-0.000398256
0.00757937
-0.00198895
0.0104236
-0.00538062
0.0116821
-0.0096273
0.0106665
-0.0127372
0.00715534
-0.0130822
0.00175582
-0.0102824
-0.00473101
-0.00548747
-0.0111799
-0.000502281
-0.0174169
0.00430992
-0.0227907
0.0107097
-0.0253308
-0.000891393
-0.000147177
-0.000633252
0.000381483
4.30596e-05
0.000478571
0.000840816
0.000630542
0.00165704
0.000391464
0.00222237
0.000312744
0.00261486
0.000242484
0.00295841
0.000541742
0.00340079
0.000508076
0.00390286
-0.000113942
0.00501722
-0.00211521
0.00656919
-0.00522046
0.00690042
-0.0085393
0.00579226
-0.0105908
0.00329464
-0.0101467
-6.2814e-05
-0.00739272
-0.00382133
-0.00303877
-0.00758332
0.00150311
-0.0110295
0.00544582
-0.0139877
0.0100257
-0.0172651
-0.00146454
-0.00156626
0.000942215
-0.00174135
0.00218606
-0.0022906
0.00372373
-0.00308655
0.00513275
-0.00392147
0.00647368
-0.00456721
0.00716424
-0.00497832
0.00809616
-0.00528037
0.00852039
-0.00578145
0.00931737
-0.00691184
0.00975257
-0.00882413
0.0105685
-0.0114146
0.009876
-0.0136241
0.00746712
-0.0145984
0.00391206
-0.0136539
-0.00108138
-0.010805
-0.00579404
-0.00686639
-0.00996375
-0.00294197
-0.013945
7.67868e-05
-0.017324
0.00308829
-0.0196651
-0.000709982
-0.000812443
-0.000866707
1.317e-05
-0.000782806
0.000506358
-0.000928313
0.00109247
-0.00119088
0.00168528
-0.00144423
0.0022419
-0.0016259
0.00268648
-0.00173301
0.00311549
-0.00187816
0.00337179
-0.00207865
0.00376264
-0.00264562
0.00421616
-0.00366919
0.00489451
-0.00454198
0.0044581
-0.00485663
0.00443362
-0.00416798
0.00285453
-0.00187646
0.00224762
0.00101117
0.0017273
0.00457062
-0.000181243
0.0074187
-0.000234952
0.0089877
-0.00333195
0.0109219
-0.00154291
-0.00105967
-0.000473098
-0.000937574
-9.98613e-05
-0.000537527
-0.000121887
-0.000141652
-0.000374953
0.000287096
-0.000554563
0.000715354
-0.000844806
0.00109016
-0.00092764
0.00136776
-0.00119356
0.00156872
-0.00119451
0.00190901
-0.00176858
0.00241377
-0.00228273
0.002951
-0.00268236
0.00318564
-0.00223708
0.00326502
-0.000988536
0.003772
0.000440427
0.00276047
0.00255658
0.00191493
0.0038244
0.000694347
0.00413049
-0.00326106
0.00388131
-0.00608424
0.0037653
-0.000732685
-0.00109311
-0.00171672
0.000411286
-0.0017174
0.00123981
-0.00201491
0.00198402
-0.00247695
0.00255683
-0.00289501
0.00311067
-0.00318087
0.00334452
-0.00340551
0.00362581
-0.00367424
0.00362553
-0.00389539
0.00367408
-0.00420892
0.00345631
-0.00477417
0.00299837
-0.00516
0.00215171
-0.0052475
0.00096606
-0.00491067
-0.000540025
-0.00395579
-0.00168184
-0.00265179
-0.0031574
-0.000814391
-0.00429877
0.000736614
-0.00461371
0.00137873
-0.00606154
0.000964905
-0.00125299
-0.000606432
-0.000773656
-0.000838306
-7.70679e-05
-0.000623392
0.00027202
-0.000607788
0.000617256
-0.000698049
0.000895164
-0.000798053
0.00118979
-0.000876997
0.00137889
-0.000968991
0.00155091
-0.00104902
0.00158371
-0.00110714
0.00171542
-0.00130665
0.00172277
-0.00150227
0.00177063
-0.00155965
0.00126182
-0.0011726
0.00127595
-0.000707834
0.000947728
7.69307e-05
0.000254036
0.000891799
-1.3547e-05
0.00166654
-0.000889092
0.00204516
-0.0015563
0.00195678
-0.0023329
-0.000260771
-0.00126781
-0.000956935
-0.0003662
-0.000667614
-1.73438e-06
-0.000312429
0.000139524
-1.86259e-05
1.40193e-05
0.000258067
4.05125e-06
0.000531178
-0.000158221
0.000745679
-0.000158686
0.000895971
-0.000253688
0.00100747
-0.000251629
0.00117477
-0.000333299
0.00138701
-0.00027533
0.00147837
-0.000165807
0.00169133
-0.00019088
0.00123472
-0.000191083
0.00067114
-0.000413809
-0.00015471
-0.000608403
-0.00147417
-0.000663975
-0.00213534
-0.000544688
-0.00243413
-0.00054617
-0.0023755
-0.000596486
-0.000295009
-0.000643359
-0.00110109
0.00023713
-0.000976347
0.000805535
-0.00104877
0.00115282
-0.00120479
0.00145072
-0.00133769
0.00160492
-0.00140147
0.0016786
-0.00142094
0.00165174
-0.00139018
0.00154287
-0.00130371
0.00146534
-0.00126404
0.00130553
-0.00127195
0.000996298
-0.00137126
0.000456389
-0.00146183
-0.000166039
-0.00162026
-0.000904902
-0.00156494
-0.00153208
-0.00137168
-0.00169485
-0.000993149
-0.00163353
-0.000667485
-0.0014076
-0.000569976
-0.0011491
-2.5589e-05
-0.00106015
-0.000515395
-0.00047251
-0.000499291
-1.19329e-05
-0.000305836
0.000215697
-0.00028972
0.000324139
-0.000342133
0.000447459
-0.000407178
0.000504708
-0.00045095
0.000589676
-0.000454149
0.000576036
-0.000360193
0.000707888
-0.000316312
0.000751028
-0.000234397
0.00077186
-9.81515e-05
0.000894378
-5.29899e-05
0.000687352
-1.6667e-05
0.000493023
1.27276e-05
0.000329233
-1.31295e-05
8.13452e-05
-4.43154e-05
-4.288e-05
-8.04624e-05
-9.73845e-05
-0.000167268
-3.99472e-05
-0.000228594
-0.000271923
0.000201792
-0.000684552
-0.000596558
-0.000152298
-0.000391228
0.000107514
-0.000188307
9.75849e-05
-5.80904e-05
5.5989e-06
4.93959e-05
-0.000123221
0.000144802
-0.000171939
0.000223359
-0.000218153
0.000303897
-0.000227748
0.000333111
-0.000184083
0.000405766
-0.000182484
0.000523445
-0.000177463
0.00041133
-0.000199434
0.000321716
-0.000283172
0.000203281
-0.000403164
-8.08876e-05
-0.000503468
-0.00019105
-0.000523439
-0.000167259
-0.000490741
-8.81765e-05
-0.000477652
8.42462e-05
-0.000467364
7.86568e-05
-0.000701125
-0.000272665
-0.000337747
-0.000663141
0.000224031
-0.000557241
0.000523704
-0.000613879
0.000649106
-0.000703428
0.000721254
-0.00077142
0.000750265
-0.000777368
0.000717677
-0.000753683
0.00063791
-0.000689768
0.000601431
-0.000644924
0.000515667
-0.000644428
0.000379175
-0.000682249
0.000254705
-0.000764811
3.33459e-05
-0.000859208
-0.000167105
-0.000915896
-0.000207613
-0.000900966
-0.000139312
-0.000824973
-3.58255e-06
-0.000750632
0.000196801
-0.000711034
0.000274912
-0.00067227
-0.000206648
0.000375296
-0.000593596
-0.000308781
-0.000250849
-0.000277291
2.81063e-05
-0.000159148
0.000137714
-0.000162247
0.000166985
-0.000197479
0.000224415
-0.000231573
0.000226655
-0.000247728
0.000238378
-0.000245769
0.000241956
-0.000258784
0.000203202
-0.000297831
0.000166989
-0.000364552
0.000128956
-0.000482491
-4.41204e-05
-0.00059701
-0.000118845
-0.00066755
-0.000136239
-0.000681645
-5.16408e-05
-0.000672995
4.9931e-05
-0.000642243
0.000163005
-0.000647531
0.000321866
-0.000663464
0.000393762
0.000187213
-0.000516477
0.000104527
-0.000426259
-0.000383562
-7.15091e-05
-0.000246223
8.54181e-05
-0.000117267
5.84683e-05
-4.15088e-05
-2.43767e-06
2.11636e-05
-7.38404e-05
6.50066e-05
-0.000129747
8.61184e-05
-0.000168861
7.56031e-05
-0.000212065
7.0842e-05
-0.000276152
7.36131e-05
-0.000350499
1.49677e-05
-0.000450462
-2.00239e-05
-0.000527776
-4.67558e-05
-0.000593746
-1.72635e-05
-0.000619307
4.36897e-05
-0.000622329
0.00015477
-0.000612799
0.000274932
-0.000619036
0.000352353
-0.00066173
0.000532224
-0.000162686
0.000403152
-0.000436857
-0.000177571
-0.000211325
-0.000441995
0.000157325
-0.000353008
0.000327451
-0.000370721
0.000389718
-0.000408834
0.00041011
-0.000435066
0.000398082
-0.000443393
0.000358631
-0.000444831
0.000310879
-0.00045821
0.000268915
-0.000494675
0.00024525
-0.000560627
0.000172637
-0.000649084
0.000143154
-0.00071886
8.96683e-05
-0.000781766
0.000135301
-0.000798536
0.000206063
-0.000800489
0.000329455
-0.000785368
0.000469357
-0.000794961
0.000537452
-0.000772326
0.000677517
0.000212811
-0.000394389
0.000259502
-0.000416741
-0.00019903
-0.000152101
-0.000111586
2.63458e-05
-5.90966e-05
8.60757e-05
-7.16566e-05
0.000111714
-9.83022e-05
0.000129099
-0.000133151
0.000132638
-0.000156734
0.000122363
-0.000177129
0.000129114
-0.000218481
0.000135148
-0.000279531
0.000113275
-0.000388305
0.00010289
-0.000488843
5.70119e-05
-0.000604012
6.91855e-05
-0.000660259
0.000128956
-0.000697318
0.000231251
-0.0006895
0.00035396
-0.000657946
0.000485478
-0.000606296
0.000651783
-0.000630192
-0.000125524
0.000409926
-0.000369221
0.000115613
-0.000263587
-8.97079e-05
-9.60384e-05
4.87797e-05
-2.8083e-05
8.25581e-05
-3.71539e-05
9.76702e-05
-6.62872e-05
0.000108704
-8.93725e-05
0.000115886
-0.000121636
0.00012558
-0.000154597
0.000122232
-0.00018389
0.00015499
-0.000269236
0.000138839
-0.000354495
0.000145272
-0.000459331
0.000127934
-0.000544909
0.000162837
-0.000602809
0.000236771
-0.000629687
0.000321345
-0.000629876
0.00044835
-0.000597948
0.000530766
-0.000536342
0.000678172
-0.000520432
0.000210807
-0.000324139
0.000322606
-0.000299504
-6.0165e-05
-0.00016406
3.60785e-05
-7.26204e-05
0.000101641
-1.24243e-05
7.2401e-05
1.94851e-05
2.86945e-05
5.25482e-05
-2.59369e-05
7.72848e-05
-6.76092e-05
8.73424e-05
-0.000104868
0.000127077
-0.000172623
0.000119584
-0.000238747
0.000147585
-0.000328907
0.000155419
-0.000388171
0.000189572
-0.00044744
0.000255458
-0.000460513
0.000327906
-0.00047469
0.000426384
-0.000447481
0.00046444
-0.000419245
0.000575191
-0.000356506
0.000531072
-0.000342872
-0.000111859
0.000348645
-0.000292632
0.000137268
-0.000172377
-6.25643e-05
-0.000176439
0.000156689
-0.000138234
0.000237108
-0.000166081
0.000267318
-0.000201621
0.000275483
-0.000218751
0.000281946
-0.000231586
0.000296153
-0.000254724
0.000281275
-0.000299853
0.000304547
-0.000369709
0.000294216
-0.000431399
0.000309893
-0.000481794
0.000346521
-0.000502926
0.000400054
-0.000515478
0.000461122
-0.000497037
0.000491593
-0.000460579
0.000548741
-0.000381257
0.000546643
-0.000278338
0.000561975
-0.000184714
0.000167824
-0.000261509
0.000268221
-0.000173958
-0.000103991
-6.32085e-05
-4.32264e-05
-1.35722e-05
6.07934e-05
6.56828e-06
9.03876e-05
-1.03064e-05
0.000104873
-2.75033e-05
0.000127364
-4.82787e-05
0.00015265
-6.19746e-05
0.000160621
-0.000113881
0.000182451
-0.000176826
0.000174997
-0.000266726
0.00018196
-0.000321164
0.000223047
-0.000357955
0.000276074
-0.000369102
0.000345645
-0.000363533
0.000381213
-0.000336426
0.000435631
-0.000279523
0.000422928
-0.000229932
0.000442429
-9.982e-05
0.000367726
-9.4277e-05
0.000279692
-0.000208939
0.000108887
-2.58379e-05
-0.000133495
-2.36761e-05
-2.94767e-05
5.58804e-05
9.87104e-06
7.9636e-05
2.76515e-06
9.75001e-05
-1.53951e-05
0.000115915
-2.25067e-05
0.000147368
-4.86905e-05
0.000152708
-8.77414e-05
0.000166552
-0.000150243
0.000169264
-0.000216425
0.000188515
-0.000262848
0.000238241
-0.000288344
0.000278182
-0.000297184
0.000340701
-0.000289631
0.000352714
-0.00026038
0.000389733
-0.000197875
0.000350787
-0.000133375
0.000351618
-2.44399e-05
0.00025508
0.000125789
-0.000189197
0.00022288
-9.7254e-05
-5.5041e-05
-3.39186e-05
-7.93529e-05
1.88656e-05
-1.24267e-05
5.75481e-05
3.60139e-05
4.30969e-05
6.62134e-05
2.15988e-05
9.81337e-05
-4.7349e-06
0.000115256
-3.15763e-05
0.000129615
-6.56838e-05
0.000143231
-0.000117174
0.000167122
-0.000168567
0.000202553
-0.000204388
0.000246689
-0.000225154
0.000298426
-0.000225932
0.000328692
-0.000216221
0.000366822
-0.000180695
0.00035249
-0.00012411
0.000358071
-4.55842e-05
0.000290903
7.22871e-05
0.00024369
-6.81082e-05
0.000212906
-0.000132826
0.000108104
-1.27677e-05
-8.05361e-05
-3.69404e-05
-8.58662e-05
8.37216e-05
-5.65902e-05
0.000144913
-6.86052e-05
0.000187253
-0.00010069
0.000221798
-0.000134076
0.000233567
-0.00016106
0.000247138
-0.000173475
0.000225698
-0.000191467
0.000231554
-0.000204512
0.000249332
-0.000223344
0.00027217
-0.000230833
0.000309538
-0.000222977
0.000317137
-0.000200106
0.000344346
-0.000161301
0.000305799
-0.000111407
0.000294214
-4.26101e-05
0.000191894
7.89592e-05
0.000104399
8.5539e-05
-0.000119544
0.000178035
-5.01019e-05
1.25071e-05
-5.49487e-05
-3.6687e-05
-2.38232e-05
-7.99875e-06
4.05173e-05
1.18066e-05
7.49979e-05
5.66167e-06
0.00010206
-1.2932e-05
0.000128532
-3.57233e-05
0.000149425
-5.21182e-05
0.000158854
-7.16449e-05
0.000179948
-9.03946e-05
0.000188345
-0.000120392
0.000198448
-0.000143536
0.000229347
-0.000151116
0.000245514
-0.000138839
0.00028002
-9.62639e-05
0.000265627
-4.10835e-05
0.000274536
3.74176e-05
0.000200955
0.00012921
0.000125259
0.000247681
-3.2434e-05
0.000157387
-6.8557e-05
0.000103593
-7.15586e-07
2.18191e-07
-5.88033e-05
-1.77466e-05
-1.10701e-05
2.60496e-05
1.07757e-05
5.92271e-05
1.08182e-05
9.09053e-05
-3.56887e-06
0.000120549
-2.79691e-05
0.000144657
-5.85103e-05
0.00014729
-8.09977e-05
0.000152064
-9.41082e-05
0.00014254
-0.000102529
0.000132994
-0.00010814
0.000148237
-0.000112995
0.000144387
-0.000107151
0.000162732
-7.54355e-05
0.000126576
-2.15982e-05
0.000112793
5.21549e-05
1.61553e-05
0.000129446
-8.31077e-05
0.000240743
4.17817e-05
-4.97382e-05
0.000110301
-7.05074e-06
3.53553e-05
-1.7838e-05
-2.6443e-05
-3.01683e-05
-1.93508e-05
6.9774e-06
-2.40601e-06
3.99773e-05
3.60582e-06
7.53954e-05
-4.62294e-06
0.000105725
-3.60495e-05
0.000117295
-7.24801e-05
0.000118116
-9.96211e-05
0.000102863
-0.000102233
8.70061e-05
-8.25822e-05
8.90551e-05
-5.40269e-05
9.51801e-05
-3.83669e-05
0.000116875
-2.98229e-05
0.000108306
-1.46758e-05
0.000111962
2.38753e-05
5.35247e-05
9.29145e-05
-6.3415e-06
0.000190104
-0.000108592
0.000289429
6.33661e-05
8.47787e-05
1.25004e-05
6.42185e-05
3.73115e-06
-2.14181e-08
-5.14633e-05
-3.88128e-05
-4.50991e-05
-2.0568e-05
-2.94691e-05
3.4188e-06
-1.72149e-05
3.32071e-05
-2.0143e-05
5.59217e-05
-3.88967e-05
6.76171e-05
-6.8342e-05
6.76489e-05
-8.72886e-05
5.78811e-05
-7.72e-05
5.94484e-05
-3.67692e-05
5.9874e-05
1.26331e-05
6.80581e-05
5.17193e-05
6.94546e-05
6.99118e-05
7.56428e-05
7.68436e-05
5.52662e-05
8.8643e-05
3.46986e-05
0.000118059
-2.75275e-05
0.000162544
-9.87181e-05
0.000226107
3.72675e-05
6.33568e-05
7.20542e-05
1.50954e-05
2.60486e-05
-3.73572e-05
-3.29078e-05
-7.33312e-05
-4.42585e-05
-6.32202e-05
-4.47251e-05
-4.81367e-05
-4.63295e-05
-3.04046e-05
-5.09711e-05
-1.04299e-05
-6.43499e-05
7.32206e-06
-8.192e-05
1.52461e-05
-9.29267e-05
2.62288e-05
-7.7743e-05
2.26676e-05
-3.84777e-05
1.61647e-05
2.49162e-05
4.4942e-06
8.42938e-05
-7.518e-06
0.000123152
-1.5219e-05
0.00013522
-2.66736e-05
0.000126962
-2.517e-05
0.000120356
-3.92962e-05
0.00012072
-1.55633e-05
0.000127097
8.45089e-05
6.85952e-05
4.01895e-05
3.26789e-05
-5.04828e-06
-5.65663e-06
-5.9439e-05
-2.87161e-05
-7.43268e-05
-2.95579e-05
-8.68223e-05
-3.17621e-05
-9.94886e-05
-3.29299e-05
-0.000114446
-3.46556e-05
-0.000127144
-3.23821e-05
-0.000139033
-3.84753e-05
-0.000138889
-3.70917e-05
-0.000118387
-5.96054e-05
-6.93841e-05
-8.5893e-05
1.04317e-05
-0.000126493
0.000100894
-0.000177383
0.000177663
-0.000207182
0.000219488
-0.000260906
0.000211266
-0.000247282
0.000167536
-0.000272091
6.76969e-05
-0.000177471
-4.76048e-05
-6.0699e-06
1.02784e-05
7.85461e-06
2.12725e-06
2.69787e-07
-1.35232e-05
-1.09438e-05
-2.35489e-05
-1.53267e-05
-3.4347e-05
-2.04802e-05
-4.9833e-05
-2.57127e-05
-7.19221e-05
-3.32175e-05
-9.82182e-05
-4.04177e-05
-0.00012374
-4.61361e-05
-0.000148457
-6.21867e-05
-0.000166878
-7.49801e-05
-0.000173556
-0.00010228
-0.000163757
-0.000128944
-0.000137245
-0.000155472
-0.000105396
-0.000184182
-8.50566e-05
-0.000184911
-9.0026e-05
-0.000192174
-0.000132155
-0.00014654
-0.000203741
-0.000111267
-0.000285195
1.26023e-05
4.91415
3.03575
-2.20339
4.20267
-3.5065
-0.00013879
0.587319
-0.224243
-2.23375
0.914135
-1.44031
1.81588
-0.270978
0.161966
-0.166625
0.114094
-0.0271299
0.320535
-0.326401
0.920406
-0.928821
-0.0297959
-0.0639825
0.00280305
-0.0995872
-0.411467
0.133987
-0.242644
-0.151295
-0.831042
0.486473
-0.20003
0.411341
0.0934761
0.0863314
-0.0279529
0.018796
-0.000788479
0.044897
-0.07322
-0.00526557
-0.00665162
-0.00873077
-0.0225172
0.0163251
-0.0147378
-0.00153782
0.00789701
0.000434798
-0.00226635
-0.000188821
-0.000738968
3.76128e-05
-0.000311633
0.0040975
-0.00416003
-0.000849797
-0.000674397
-0.000798428
-0.000249142
4.06041e-05
-3.43198e-05
-0.000194973
-0.000570134
8.07825e-05
-0.00172285
0.001418
-0.000112226
0.000108242
-0.000500532
0.000194293
-0.000398994
0.000239162
8.39543e-05
2.043
1.15125
0.000595874
0.804126
-1.05747
-0.570727
-0.420868
-0.696632
-1.14688
-0.232104
-0.232757
0.656544
0.290333
0.346724
0.159351
0.183609
0.139763
0.142586
-0.0210642
0.195103
-0.279493
-0.0278778
-0.232274
-0.130677
-0.240087
-0.31666
-0.18535
-0.244031
-0.158202
-0.215032
0.0808671
0.025818
0.132303
0.085162
0.0688174
0.0154995
0.0169764
-0.00312651
-0.00756166
-0.0342849
-0.0137454
-0.0149852
-0.0148397
-0.0129346
-0.000916748
-0.00565181
0.001485
0.00107645
4.56688e-05
-0.000778716
-0.000702743
-0.000658436
-0.000683501
-0.00067409
0.000146487
-0.00234366
-0.00130318
-0.00135218
-0.00104623
-0.000810133
-0.000400614
-0.000409436
-0.000386825
-0.000469359
-6.35192e-05
-0.00028118
0.000654656
0.000288883
0.0002616
2.92735e-05
0.000233611
-0.000118566
0.000110612
-5.18135e-06
1.0112
0.024051
-0.146772
0.260092
-0.0490228
0.248911
0.339063
0.262318
0.19159
0.196704
-0.0969958
-0.0562549
-0.288367
-0.132998
-0.190265
-0.100632
-0.164014
0.0235329
-0.118815
0.140807
-0.0628658
0.0469439
0.103193
0.133152
0.134271
0.11986
0.167097
0.122082
0.0398677
-0.124668
0.0145549
-0.0373229
0.00357101
-0.0259982
-0.0106744
-0.027236
-0.00372073
0.00193143
0.014846
0.00499318
0.00800103
0.00484564
0.00423212
-0.00258915
0.00386468
-0.00388282
5.16443e-05
-0.000415714
0.000584252
-0.000697876
0.000725739
0.000352579
0.00101274
0.000627885
0.000936213
0.00042791
0.000595144
0.000697406
0.000360808
0.000463494
0.000237351
0.00025843
9.35302e-05
-3.81409e-05
6.97495e-05
-0.000415968
-9.40392e-05
-0.000412434
-0.000442373
-0.000383857
-0.000143852
-0.000298496
7.74537e-05
6.52006e-05
1.12075
0.753886
0.421758
0.346811
-0.104618
-0.174194
-0.205257
-0.308712
-0.410407
-0.205578
-0.0694157
0.186839
0.158052
0.172436
0.0788177
0.0683879
0.0529912
0.0538644
-0.0121265
0.0671137
-0.107958
-0.0195965
-0.153335
-0.095839
-0.163395
-0.188894
-0.126595
-0.139368
-0.113308
-0.104483
0.00695402
0.0346982
0.0592253
0.0597649
0.0531516
0.0195856
0.0150882
-0.00141994
-0.00855789
-0.0166364
-0.00863845
-0.0101517
-0.00867328
-0.00686198
-0.000879273
-0.0023449
0.0023445
0.000402653
0.000611276
-0.000332834
-0.000234268
-0.000318219
-0.000466349
-0.000574585
-0.000414533
-0.00149443
-0.00118441
-0.00123055
-0.000972174
-0.000812729
-0.000449701
-0.000410302
-0.00037628
-0.000385567
-8.402e-05
-9.46545e-05
0.000322057
0.000190406
0.000104795
3.54777e-05
0.00011922
-0.000163531
7.18196e-05
-8.62256e-06
0.29637
0.13472
0.0137664
0.0626531
0.0308958
0.0788483
0.0408758
0.077361
0.147188
0.0833197
0.00263298
-0.0881988
-0.123293
-0.0542839
-0.0654874
-0.0448988
-0.0835947
-0.0186185
-0.0553591
0.0211429
0.0248077
0.0374355
0.103099
0.11126
0.12236
0.145738
0.114231
0.0994877
0.0442116
-0.0286593
-0.0154412
-0.019835
-0.026535
-0.0324723
-0.0165118
-0.0202859
-0.00949593
-0.000309497
0.00815725
0.00933315
0.00689845
0.00550586
0.00357412
-0.000264404
0.00114715
-0.0022169
-0.000167773
-0.00109789
-6.68185e-05
-0.000587173
0.000314704
0.000284247
0.0008293
0.000653822
0.000661657
0.00100966
0.000632713
0.000703985
0.000418122
0.000473003
0.000296177
0.000301636
0.000120555
9.07304e-06
3.96526e-05
-0.000219741
-0.000256316
-0.000358183
-0.000357023
-0.000224569
-0.000112596
-0.000214995
7.37537e-05
6.71545e-05
0.333525
0.357661
0.277192
0.290503
0.105726
0.0546212
-0.015958
-0.0325325
-0.0905377
-0.0875102
-0.0557494
0.00787291
0.0395387
0.0592881
0.0328976
0.0320226
0.0245919
0.0277378
0.000540712
0.0226975
-0.0385861
-0.0250173
-0.0898853
-0.0752467
-0.11227
-0.12178
-0.0885894
-0.0872772
-0.0804727
-0.0662785
-0.010838
0.0170265
0.0316086
0.0412355
0.0398603
0.0200645
0.0136005
0.00044948
-0.00496186
-0.00714359
-0.00490713
-0.00666061
-0.00476619
-0.00361864
-0.000365691
-0.000986853
0.00214334
4.7248e-05
0.000805851
-0.000379494
-1.92706e-05
-0.000268833
-0.000543615
-0.00065497
-0.000725032
-0.00115951
-0.00111553
-0.00109995
-0.000884426
-0.000747986
-0.00046872
-0.000393993
-0.000328306
-0.000293325
-7.94815e-05
-4.34219e-05
0.000149968
0.000119271
4.17528e-05
4.22378e-05
4.29843e-05
-0.00018125
5.16886e-05
-6.21918e-06
0.197632
0.0994719
0.122257
0.0523269
0.092814
0.0303611
0.0211951
0.021708
0.0474037
0.0161664
-0.00138636
-0.0367519
-0.0320403
-0.00965456
-0.0129252
-0.0115932
-0.035155
-0.0118697
-0.0241883
0.00101448
0.0215813
0.0310276
0.0660049
0.0741553
0.0819037
0.0929172
0.07005
0.0713349
0.0373211
0.00436146
-0.00830285
-0.0159817
-0.0246827
-0.0273659
-0.0184013
-0.0183995
-0.00961938
-0.00216044
0.00381192
0.00867062
0.00545889
0.00407159
0.0025921
0.00159001
0.000418729
-0.0009638
-0.00034378
-0.00166426
-3.1999e-05
-0.00102424
0.000547894
0.000190165
0.000665627
0.000583959
0.000592352
0.00102507
0.000674394
0.00070548
0.000458445
0.000452523
0.000281652
0.000255932
9.84077e-05
2.77317e-05
7.56374e-06
-0.000123306
-0.000231401
-0.000270543
-0.00029186
-0.000153022
-0.000111447
-0.000116433
7.11706e-05
6.90077e-05
0.10744
0.0784828
0.0813312
0.0854878
0.107611
0.0564836
0.0763268
0.0137101
-0.00109773
-0.0278524
-0.0346857
-0.0249202
-0.00506432
0.00773395
0.00632066
0.00931237
0.00902717
0.00901554
0.00504761
0.00285962
-0.0142712
-0.0285092
-0.0531283
-0.0611526
-0.0802815
-0.0810053
-0.0665028
-0.0557083
-0.0549788
-0.0427504
-0.0136522
0.00583125
0.01971
0.0272811
0.0271139
0.016681
0.0112389
0.00267446
-0.000682806
-0.00175881
-0.00285954
-0.0044532
-0.00294426
-0.00218925
-0.00051
-0.000675433
0.00122678
-8.62874e-05
0.000619998
-0.000386078
4.67119e-05
-0.000207197
-0.000644069
-0.000671397
-0.000814934
-0.000963232
-0.000977975
-0.000922764
-0.000737228
-0.00062168
-0.000422648
-0.000338652
-0.000255735
-0.000206746
-6.41932e-05