/*--------------------------------*- C++ -*----------------------------------*\
| =========                 |                                                 |
| \\      /  F ield         | OpenFOAM: The Open Source CFD Toolbox           |
|  \\    /   O peration     | Version:  2312                                  |
|   \\  /    A nd           | Website:  www.openfoam.com                      |
|    \\/     M anipulation  |                                                 |
\*---------------------------------------------------------------------------*/
FoamFile
{
    version     2.0;
    format      ascii;
    arch        "LSB;label=32;scalar=64";
    class       volScalarField;
    location    "50";
    object      magR;
}
// * * * * * * * * * * * * * * * * * * * * * * * * * * * * * * * * * * * * * //

dimensions      [0 2 -2 0 0 0 0];

internalField   nonuniform List<scalar> 
11040
(
0.08831
0.20364
0.456944
0.8983
1.60176
2.69335
4.09688
5.33208
6.0722
6.40699
6.5386
6.58766
6.59734
6.57629
6.52407
6.43816
6.31532
6.15346
5.95474
5.72564
5.47
5.20963
4.97672
4.77784
4.59742
4.41625
4.22618
4.03138
3.84148
3.66647
3.51207
3.37432
3.2424
3.09905
2.92706
2.71645
2.46492
2.18281
1.85942
1.56688
1.04419
0.0329408
0.0362416
0.0411732
0.0403132
0.03885
0.0439854
0.0661831
0.106506
0.154999
0.205687
0.255661
0.302809
0.345504
0.38316
0.416329
0.446192
0.473485
0.498452
0.52086
0.540514
0.5587
0.572249
0.575518
0.571095
0.564634
0.559464
0.556532
0.5538
0.549636
0.542747
0.532825
0.522488
0.513485
0.508867
0.51054
0.519366
0.535676
0.557652
0.583627
0.611873
0.67119
0.0241995
0.0201964
0.0128382
0.0100895
0.0115583
0.012211
0.0116879
0.0105982
0.00940762
0.00839371
0.00738973
0.00628025
0.00553629
0.00969495
0.0210155
0.0386969
0.0625358
0.0919838
0.125923
0.162851
0.201722
0.240439
0.276032
0.30658
0.332056
0.353257
0.370567
0.38445
0.394918
0.40218
0.406859
0.4097
0.41205
0.414703
0.418671
0.424575
0.432695
0.442073
0.456533
0.466815
0.532826
0.0158618
0.0151242
0.0136796
0.0125598
0.0114186
0.0101054
0.00877489
0.00753642
0.00639271
0.00533138
0.00436282
0.00346632
0.00262096
0.00185428
0.00123251
0.000894754
0.00112627
0.00205595
0.00391942
0.0072746
0.013001
0.0214992
0.0321289
0.0446286
0.0591012
0.0754954
0.0933062
0.111786
0.130178
0.148055
0.16546
0.182927
0.201241
0.221162
0.24313
0.266986
0.292233
0.317917
0.346997
0.371094
0.441064
0.0106104
0.0106997
0.00991699
0.00847278
0.00661507
0.00498823
0.00399791
0.00357758
0.00344294
0.00337522
0.00327941
0.00312194
0.0029078
0.00267745
0.00245446
0.00223965
0.0020056
0.00173857
0.00146569
0.00122765
0.00104101
0.000890046
0.000755601
0.000612481
0.000609825
0.00124919
0.00259501
0.00458166
0.00719005
0.0104722
0.0146051
0.0199068
0.0268007
0.0358854
0.0478692
0.0634236
0.0830585
0.107466
0.139295
0.174114
0.254789
0.00708553
0.00742107
0.00733019
0.00696187
0.00632529
0.00559791
0.00490056
0.00428422
0.00375963
0.00331471
0.00292922
0.00258545
0.00227427
0.00198907
0.00171014
0.00143444
0.00117573
0.000949771
0.000763312
0.000617963
0.000508399
0.00044386
0.000432762
0.000441593
0.000426435
0.000373965
0.000322718
0.000313392
0.00033724
0.000382939
0.000472995
0.00062168
0.000818907
0.00107994
0.00153128
0.00251993
0.00458344
0.00841557
0.0155152
0.0255831
0.0587076
0.0047966
0.00511853
0.0052038
0.00516476
0.00485422
0.00432759
0.00371091
0.0031167
0.00261527
0.00223227
0.00196031
0.00177337
0.00164072
0.00154274
0.00147291
0.00142808
0.00139565
0.00134854
0.0012623
0.00114195
0.00102232
0.000932527
0.000882178
0.00086068
0.000836856
0.000775285
0.000676508
0.000578013
0.000515683
0.000492813
0.000502023
0.000538545
0.00057657
0.00057718
0.000523839
0.000441743
0.000387332
0.000405075
0.000564837
0.000771919
0.00357555
0.00327094
0.00352388
0.00363155
0.00374499
0.00371898
0.00354391
0.00327611
0.00297253
0.00267245
0.00239579
0.00214833
0.00192707
0.00172738
0.00154795
0.00138997
0.00125278
0.00113039
0.00101646
0.000904155
0.000790374
0.000681616
0.000588291
0.000519162
0.000482907
0.00047972
0.0004813
0.000460355
0.000424357
0.000400818
0.000395682
0.000394981
0.000405575
0.000448766
0.000513663
0.000562921
0.000577704
0.000576065
0.000576729
0.000583001
0.00049707
0.000440299
0.00224474
0.00243221
0.00250967
0.00264125
0.00271208
0.0026834
0.00256733
0.00238961
0.00217867
0.0019594
0.00175034
0.00156119
0.00139559
0.00125405
0.00113663
0.00104664
0.000986907
0.000951967
0.000925299
0.000887828
0.000829729
0.000761922
0.000704925
0.000672922
0.000668067
0.000672162
0.000659466
0.000619547
0.000564874
0.000516756
0.000486044
0.000474332
0.000487805
0.000529795
0.00058328
0.00062479
0.000649896
0.000673035
0.000715678
0.000747548
0.000704172
0.00154516
0.00168237
0.00172813
0.00183619
0.00192961
0.00197353
0.00196528
0.00191112
0.0018224
0.00171271
0.00159415
0.00147464
0.0013583
0.00124713
0.00114214
0.00104532
0.000959366
0.000884585
0.000817386
0.000751034
0.000680943
0.000610511
0.000547461
0.000499648
0.000471875
0.000461721
0.000458107
0.000448449
0.000430402
0.000412106
0.000399551
0.000390509
0.00038563
0.000396884
0.000431728
0.000479587
0.000526843
0.000570628
0.000623705
0.000678772
0.000717221
0.00106518
0.00116532
0.0011889
0.00126593
0.00134677
0.00140636
0.00143899
0.00144207
0.0014163
0.0013663
0.00129909
0.00122132
0.00113847
0.00105493
0.000973743
0.000897683
0.000830239
0.000774836
0.00073216
0.000697529
0.000662195
0.000621852
0.000578961
0.000540753
0.000515979
0.000508122
0.000512152
0.000517065
0.000513891
0.000501216
0.00048358
0.000465363
0.000449166
0.000439562
0.000442317
0.000457612
0.000478231
0.000496681
0.000516006
0.000535267
0.000553803
0.000734264
0.000807078
0.000817619
0.000869209
0.000929769
0.000983219
0.00102599
0.00105461
0.00106628
0.0010608
0.00104043
0.00100824
0.00096748
0.000921165
0.000871694
0.000821021
0.000771085
0.000723894
0.000680558
0.000640074
0.000600126
0.00055943
0.000517676
0.000477445
0.000444019
0.00042138
0.000409918
0.00040577
0.00040294
0.000397365
0.000388652
0.000377914
0.00036536
0.00035181
0.000341057
0.0003386
0.000346336
0.000361564
0.000381553
0.000402694
0.000423215
0.000505713
0.000558231
0.000561995
0.000595523
0.000637772
0.000678519
0.000716323
0.000748816
0.000772963
0.000786791
0.000789916
0.000782948
0.000767141
0.000744176
0.000715827
0.000683777
0.000649695
0.000615353
0.000582521
0.000552328
0.000524491
0.000498486
0.000473109
0.000448012
0.000425387
0.000408001
0.00039739
0.000392882
0.00039164
0.000390296
0.000386633
0.000380073
0.000370713
0.000358914
0.00034606
0.000335121
0.000328635
0.000327344
0.000329726
0.000332922
0.000338696
0.000347746
0.000385172
0.000385861
0.00040739
0.000435841
0.000464648
0.000493574
0.000521518
0.000546418
0.000566447
0.000580539
0.000588221
0.000589501
0.000584829
0.000574922
0.000560657
0.000542971
0.000522883
0.00050151
0.000479797
0.000458359
0.000437741
0.000417514
0.000397125
0.000377452
0.000359908
0.000345679
0.000335161
0.000327784
0.000322187
0.000316962
0.000311148
0.00030419
0.000295737
0.000285801
0.000275488
0.000266531
0.000261055
0.000259364
0.000259979
0.000264407
0.000238551
0.000264799
0.000264396
0.000278188
0.000296998
0.000316565
0.000337102
0.000358234
0.000378772
0.000397471
0.000413368
0.000425753
0.000434157
0.000438382
0.000438504
0.000434814
0.000427782
0.000418
0.000406167
0.000392998
0.000379124
0.000365485
0.000352382
0.000339398
0.000326742
0.000314914
0.000304551
0.00029618
0.000290004
0.000285722
0.000282647
0.000279884
0.000276531
0.000271781
0.000265124
0.000256707
0.000247174
0.000237744
0.00022947
0.000222303
0.000218096
0.000163192
0.00018125
0.000180695
0.000189543
0.000201824
0.000214809
0.000228806
0.000243752
0.000259027
0.000273912
0.000287785
0.000300102
0.00031039
0.000318293
0.000323597
0.000326249
0.00032633
0.000324026
0.000319621
0.000313471
0.000305978
0.000297882
0.000289499
0.000280707
0.000271642
0.000262526
0.000253677
0.000245461
0.000238146
0.000231809
0.000226257
0.000221113
0.00021589
0.000210075
0.00020328
0.000195375
0.000186613
0.000177639
0.000169263
0.000162279
0.000157268
0.000111788
0.000123931
0.000123629
0.000129354
0.000137295
0.000145793
0.000155112
0.000165272
0.000175952
0.000186769
0.000197365
0.000207403
0.000216537
0.000224454
0.000230892
0.00023567
0.00023869
0.000239937
0.000239467
0.000237407
0.000233899
0.000229421
0.000224349
0.000218764
0.000212861
0.000206811
0.000200795
0.000195013
0.000189626
0.000184711
0.000180229
0.000176017
0.000171845
0.000167392
0.000162371
0.000156641
0.000150253
0.000143477
0.000136619
0.00013042
0.000125397
7.78799e-05
8.59639e-05
8.59383e-05
8.97788e-05
9.49889e-05
0.000100618
0.000106867
0.000113756
0.000121107
0.000128714
0.000136384
0.000143925
0.000151129
0.000157782
0.000163684
0.000168663
0.000172589
0.000175381
0.000176995
0.000177448
0.000176761
0.000175173
0.000172923
0.000170104
0.000166874
0.00016335
0.000159624
0.000155784
0.000151907
0.000148036
0.000144176
0.000140274
0.000136262
0.000132044
0.000127524
0.000122663
0.000117501
0.000112284
0.00010713
0.000102326
9.85585e-05
5.58084e-05
6.1296e-05
6.13949e-05
6.40648e-05
6.76055e-05
7.14546e-05
7.57642e-05
8.05397e-05
8.56751e-05
9.10516e-05
9.65612e-05
0.000102092
0.000107518
0.000112701
0.000117504
0.000121796
0.000125465
0.00012842
0.000130596
0.000131965
0.000132492
0.000132282
0.000131472
0.000130125
0.000128359
0.000126257
0.000123885
0.000121305
0.00011858
0.000115765
0.000112909
0.000110037
0.000107156
0.000104256
0.00010132
9.8331e-05
9.52311e-05
9.20728e-05
8.89319e-05
8.56773e-05
8.31024e-05
4.11198e-05
4.49035e-05
4.50668e-05
4.69728e-05
4.94471e-05
5.21532e-05
5.51996e-05
5.85833e-05
6.22328e-05
6.60753e-05
7.00442e-05
7.40721e-05
7.80813e-05
8.19844e-05
8.56899e-05
8.91074e-05
9.21521e-05
9.47488e-05
9.68338e-05
9.83645e-05
9.92923e-05
9.9656e-05
9.95135e-05
9.88953e-05
9.78813e-05
9.65332e-05
9.49067e-05
9.30528e-05
9.10234e-05
8.88634e-05
8.66117e-05
8.4294e-05
8.19231e-05
7.94937e-05
7.70071e-05
7.44668e-05
7.18598e-05
6.91829e-05
6.6529e-05
6.38075e-05
6.14254e-05
3.0958e-05
3.36028e-05
3.37853e-05
3.51674e-05
3.69301e-05
3.88729e-05
4.10669e-05
4.35087e-05
4.61436e-05
4.89278e-05
5.18128e-05
5.47589e-05
5.77116e-05
6.06172e-05
6.34108e-05
6.60332e-05
6.84198e-05
7.05159e-05
7.22659e-05
7.36304e-05
7.45589e-05
7.50636e-05
7.51739e-05
7.49058e-05
7.43168e-05
7.34552e-05
7.23663e-05
7.10907e-05
6.96689e-05
6.81317e-05
6.65095e-05
6.48207e-05
6.30853e-05
6.13046e-05
5.94896e-05
5.76475e-05
5.57865e-05
5.38985e-05
5.20222e-05
5.00858e-05
4.84137e-05
2.37212e-05
2.55936e-05
2.57771e-05
2.67921e-05
2.80713e-05
2.94895e-05
3.10972e-05
3.28863e-05
3.48186e-05
3.6862e-05
3.89843e-05
4.11565e-05
4.33427e-05
4.55055e-05
4.76017e-05
4.95901e-05
5.14263e-05
5.30705e-05
5.44822e-05
5.56302e-05
5.64753e-05
5.70224e-05
5.72857e-05
5.72678e-05
5.70044e-05
5.65271e-05
5.5866e-05
5.50488e-05
5.41028e-05
5.30499e-05
5.19124e-05
5.07056e-05
4.94473e-05
4.81462e-05
4.68121e-05
4.54537e-05
4.40774e-05
4.26884e-05
4.13215e-05
3.98256e-05
3.8703e-05
1.84407e-05
1.97787e-05
1.99526e-05
2.07074e-05
2.16502e-05
2.26998e-05
2.38936e-05
2.52199e-05
2.6654e-05
2.81699e-05
2.9747e-05
3.13613e-05
3.29899e-05
3.46035e-05
3.61745e-05
3.76713e-05
3.90647e-05
4.0324e-05
4.14214e-05
4.23312e-05
4.30234e-05
4.35001e-05
4.37689e-05
4.38254e-05
4.36916e-05
4.339e-05
4.29415e-05
4.23683e-05
4.16897e-05
4.09255e-05
4.00909e-05
3.92026e-05
3.8274e-05
3.73149e-05
3.63316e-05
3.53398e-05
3.43435e-05
3.3337e-05
3.2364e-05
3.1259e-05
3.05148e-05
1.45071e-05
1.54732e-05
1.56332e-05
1.62018e-05
1.69066e-05
1.76941e-05
1.85904e-05
1.95846e-05
2.06594e-05
2.17947e-05
2.29766e-05
2.41858e-05
2.54067e-05
2.66165e-05
2.77965e-05
2.89227e-05
2.99751e-05
3.09305e-05
3.17701e-05
3.24742e-05
3.30203e-05
3.3412e-05
3.36549e-05
3.37422e-05
3.36884e-05
3.35089e-05
3.32181e-05
3.28316e-05
3.23621e-05
3.18228e-05
3.12247e-05
3.05815e-05
2.99021e-05
2.91925e-05
2.84608e-05
2.77185e-05
2.69718e-05
2.62159e-05
2.54913e-05
2.46324e-05
2.41045e-05
1.15269e-05
1.22292e-05
1.23737e-05
1.28086e-05
1.33427e-05
1.39418e-05
1.46218e-05
1.53748e-05
1.61867e-05
1.70443e-05
1.79358e-05
1.88482e-05
1.97682e-05
2.06803e-05
2.15692e-05
2.24183e-05
2.32122e-05
2.39345e-05
2.45707e-05
2.51072e-05
2.55263e-05
2.58335e-05
2.60332e-05
2.61182e-05
2.60984e-05
2.59841e-05
2.57857e-05
2.55139e-05
2.51789e-05
2.479e-05
2.4358e-05
2.38907e-05
2.3396e-05
2.28781e-05
2.23453e-05
2.18057e-05
2.12651e-05
2.07131e-05
2.01928e-05
1.95362e-05
1.91934e-05
9.23546e-06
9.75039e-06
9.87829e-06
1.02148e-05
1.06255e-05
1.10879e-05
1.16099e-05
1.21862e-05
1.28048e-05
1.34577e-05
1.41343e-05
1.4827e-05
1.55237e-05
1.62147e-05
1.68866e-05
1.75289e-05
1.8128e-05
1.86737e-05
1.91538e-05
1.95593e-05
1.98763e-05
2.01108e-05
2.02679e-05
2.03402e-05
2.03347e-05
2.02589e-05
2.01207e-05
1.99269e-05
1.96864e-05
1.94061e-05
1.90936e-05
1.87532e-05
1.83915e-05
1.80115e-05
1.76186e-05
1.72174e-05
1.68123e-05
1.63937e-05
1.60041e-05
1.5484e-05
1.52205e-05
7.45388e-06
7.83037e-06
7.94292e-06
8.20616e-06
8.52621e-06
8.88771e-06
9.29387e-06
9.73987e-06
1.0216e-05
1.07167e-05
1.12339e-05
1.17624e-05
1.22929e-05
1.28184e-05
1.33284e-05
1.38151e-05
1.42683e-05
1.46804e-05
1.50423e-05
1.53472e-05
1.55848e-05
1.57615e-05
1.58821e-05
1.59402e-05
1.59405e-05
1.58886e-05
1.57903e-05
1.56515e-05
1.54781e-05
1.52758e-05
1.50483e-05
1.47997e-05
1.45342e-05
1.42551e-05
1.39639e-05
1.36659e-05
1.33642e-05
1.30506e-05
1.27641e-05
1.23678e-05
1.21672e-05
6.05289e-06
6.32906e-06
6.42552e-06
6.6317e-06
6.88417e-06
7.17009e-06
7.49074e-06
7.83999e-06
8.21092e-06
8.59817e-06
8.99698e-06
9.40237e-06
9.8088e-06
1.02099e-05
1.05987e-05
1.09685e-05
1.1312e-05
1.1623e-05
1.18953e-05
1.21238e-05
1.23006e-05
1.2432e-05
1.25223e-05
1.25661e-05
1.25665e-05
1.25287e-05
1.24561e-05
1.23544e-05
1.22272e-05
1.20789e-05
1.19117e-05
1.17298e-05
1.15357e-05
1.13314e-05
1.11175e-05
1.0898e-05
1.06765e-05
1.04448e-05
1.02373e-05
9.94244e-06
9.78865e-06
4.94271e-06
5.14297e-06
5.22444e-06
5.38593e-06
5.58584e-06
5.81432e-06
6.07051e-06
6.34756e-06
6.64024e-06
6.94309e-06
7.25339e-06
7.56663e-06
7.87987e-06
8.18745e-06
8.48532e-06
8.76727e-06
9.02872e-06
9.26395e-06
9.46902e-06
9.63968e-06
9.77041e-06
9.86697e-06
9.93363e-06
9.9654e-06
9.96465e-06
9.93535e-06
9.88059e-06
9.80441e-06
9.70972e-06
9.59986e-06
9.47718e-06
9.34429e-06
9.20295e-06
9.05351e-06
8.89699e-06
8.73574e-06
8.57376e-06
8.40225e-06
8.25135e-06
8.03311e-06
7.91267e-06
4.05596e-06
4.20061e-06
4.26631e-06
4.39254e-06
4.55132e-06
4.73465e-06
4.94093e-06
5.16342e-06
5.39702e-06
5.63692e-06
5.88072e-06
6.12509e-06
6.36794e-06
6.60552e-06
6.83488e-06
7.05143e-06
7.25154e-06
7.43071e-06
7.58571e-06
7.71357e-06
7.81037e-06
7.88132e-06
7.93077e-06
7.95438e-06
7.95375e-06
7.93106e-06
7.88988e-06
7.83247e-06
7.76179e-06
7.67954e-06
7.58844e-06
7.48931e-06
7.38454e-06
7.27344e-06
7.15752e-06
7.03757e-06
6.91777e-06
6.78953e-06
6.67803e-06
6.5176e-06
6.41688e-06
3.34379e-06
3.44627e-06
3.49888e-06
3.59686e-06
3.72194e-06
3.86935e-06
4.03583e-06
4.21595e-06
4.40418e-06
4.59663e-06
4.79017e-06
4.98282e-06
5.17254e-06
5.35743e-06
5.53505e-06
5.70263e-06
5.85694e-06
5.9947e-06
6.11334e-06
6.21032e-06
6.28238e-06
6.33462e-06
6.37154e-06
6.38883e-06
6.38855e-06
6.37184e-06
6.3412e-06
6.29755e-06
6.24391e-06
6.18116e-06
6.112e-06
6.03703e-06
5.95831e-06
5.87525e-06
5.78887e-06
5.69969e-06
5.61077e-06
5.51494e-06
5.43204e-06
5.31638e-06
5.22537e-06
2.76898e-06
2.84032e-06
2.88121e-06
2.95738e-06
3.05556e-06
3.17329e-06
3.30761e-06
3.45369e-06
3.60626e-06
3.76199e-06
3.91731e-06
4.07067e-06
4.22014e-06
4.36495e-06
4.50325e-06
4.6338e-06
4.75393e-06
4.86138e-06
4.95351e-06
5.02818e-06
5.08238e-06
5.12084e-06
5.14788e-06
5.16021e-06
5.15905e-06
5.14581e-06
5.12206e-06
5.08882e-06
5.0475e-06
4.9996e-06
4.94664e-06
4.88982e-06
4.83004e-06
4.76792e-06
4.70338e-06
4.63741e-06
4.57148e-06
4.50046e-06
4.43865e-06
4.35664e-06
4.27358e-06
2.30096e-06
2.35021e-06
2.38344e-06
2.44235e-06
2.51956e-06
2.61347e-06
2.72111e-06
2.83902e-06
2.96275e-06
3.08906e-06
3.21474e-06
3.33785e-06
3.45671e-06
3.57078e-06
3.6791e-06
3.781e-06
3.87526e-06
3.96004e-06
4.03291e-06
4.09223e-06
4.1347e-06
4.16389e-06
4.18376e-06
4.1921e-06
4.1895e-06
4.17822e-06
4.15901e-06
4.13312e-06
4.10093e-06
4.06406e-06
4.02281e-06
3.97878e-06
3.93239e-06
3.88482e-06
3.8356e-06
3.78582e-06
3.73645e-06
3.68351e-06
3.63747e-06
3.57988e-06
3.50483e-06
1.91796e-06
1.95218e-06
1.97992e-06
2.02704e-06
2.08864e-06
2.1629e-06
2.2488e-06
2.34316e-06
2.44305e-06
2.54519e-06
2.64711e-06
2.74644e-06
2.84181e-06
2.93218e-06
3.01732e-06
3.097e-06
3.17073e-06
3.23776e-06
3.29653e-06
3.34499e-06
3.37984e-06
3.40393e-06
3.41977e-06
3.42573e-06
3.42253e-06
3.41237e-06
3.39581e-06
3.37469e-06
3.34912e-06
3.32034e-06
3.28819e-06
3.25374e-06
3.21735e-06
3.17989e-06
3.14129e-06
3.10222e-06
3.06403e-06
3.02351e-06
2.98798e-06
2.9477e-06
2.88098e-06
1.60133e-06
1.62625e-06
1.65115e-06
1.69036e-06
1.74028e-06
1.79971e-06
1.86811e-06
1.94337e-06
2.02346e-06
2.10572e-06
2.18811e-06
2.26837e-06
2.34517e-06
2.41724e-06
2.48435e-06
2.54646e-06
2.6038e-06
2.65622e-06
2.70326e-06
2.74334e-06
2.77346e-06
2.79506e-06
2.81011e-06
2.81624e-06
2.81383e-06
2.80443e-06
2.78975e-06
2.7714e-06
2.75039e-06
2.72715e-06
2.70202e-06
2.67504e-06
2.64678e-06
2.61714e-06
2.5865e-06
2.55499e-06
2.52421e-06
2.49158e-06
2.46192e-06
2.43399e-06
2.37328e-06
1.3379e-06
1.35682e-06
1.38015e-06
1.41439e-06
1.45637e-06
1.50514e-06
1.56031e-06
1.62083e-06
1.68496e-06
1.75108e-06
1.8174e-06
1.88218e-06
1.94389e-06
2.00155e-06
2.05444e-06
2.10271e-06
2.14675e-06
2.18699e-06
2.22361e-06
2.25631e-06
2.2826e-06
2.30323e-06
2.31937e-06
2.32798e-06
2.32841e-06
2.32164e-06
2.30909e-06
2.29243e-06
2.27327e-06
2.25274e-06
2.23157e-06
2.20986e-06
2.18785e-06
2.16513e-06
2.1416e-06
2.11709e-06
2.09277e-06
2.06689e-06
2.04158e-06
2.02342e-06
1.96734e-06
1.11684e-06
1.13208e-06
1.15424e-06
1.18499e-06
1.22195e-06
1.26345e-06
1.30948e-06
1.35897e-06
1.41105e-06
1.46449e-06
1.51802e-06
1.57025e-06
1.61988e-06
1.66581e-06
1.70754e-06
1.74486e-06
1.77814e-06
1.80816e-06
1.83568e-06
1.8608e-06
1.88242e-06
1.9014e-06
1.91836e-06
1.9299e-06
1.93488e-06
1.93258e-06
1.92386e-06
1.90963e-06
1.8921e-06
1.87274e-06
1.85329e-06
1.83424e-06
1.81607e-06
1.79831e-06
1.78052e-06
1.76213e-06
1.74349e-06
1.72342e-06
1.70153e-06
1.68847e-06
1.63941e-06
9.30791e-07
9.42912e-07
9.63403e-07
9.91826e-07
1.02496e-06
1.06187e-06
1.10144e-06
1.1433e-06
1.18667e-06
1.23086e-06
1.27476e-06
1.31739e-06
1.35764e-06
1.39457e-06
1.42755e-06
1.4563e-06
1.48119e-06
1.50271e-06
1.52197e-06
1.53969e-06
1.55565e-06
1.57091e-06
1.58646e-06
1.59941e-06
1.60833e-06
1.61159e-06
1.60887e-06
1.59994e-06
1.58622e-06
1.56915e-06
1.55084e-06
1.53266e-06
1.51566e-06
1.5e-06
1.48514e-06
1.47037e-06
1.45528e-06
1.4392e-06
1.41975e-06
1.40725e-06
1.36637e-06
7.74e-07
7.83374e-07
8.01685e-07
8.2695e-07
8.57271e-07
8.90345e-07
9.25333e-07
9.61854e-07
9.99181e-07
1.03685e-06
1.07402e-06
1.10993e-06
1.14361e-06
1.17424e-06
1.20105e-06
1.22374e-06
1.24239e-06
1.25746e-06
1.26996e-06
1.28082e-06
1.29051e-06
1.30064e-06
1.31223e-06
1.32379e-06
1.33391e-06
1.34122e-06
1.34428e-06
1.34222e-06
1.33469e-06
1.32238e-06
1.30666e-06
1.28942e-06
1.27231e-06
1.25637e-06
1.24166e-06
1.22773e-06
1.21389e-06
1.19979e-06
1.18221e-06
1.16922e-06
1.13265e-06
6.42698e-07
6.49167e-07
6.64473e-07
6.86591e-07
7.13163e-07
7.42727e-07
7.73983e-07
8.06282e-07
8.39205e-07
8.72114e-07
9.04542e-07
9.35889e-07
9.65361e-07
9.92182e-07
1.01555e-06
1.03489e-06
1.04997e-06
1.06103e-06
1.06883e-06
1.07423e-06
1.07833e-06
1.08285e-06
1.08908e-06
1.09664e-06
1.10501e-06
1.11329e-06
1.12019e-06
1.12436e-06
1.12443e-06
1.1197e-06
1.11019e-06
1.09691e-06
1.08149e-06
1.06553e-06
1.05021e-06
1.03591e-06
1.02236e-06
1.00945e-06
9.93534e-07
9.81986e-07
9.49991e-07
5.32816e-07
5.37023e-07
5.49477e-07
5.67679e-07
5.90449e-07
6.15937e-07
6.43127e-07
6.71513e-07
7.00437e-07
7.29454e-07
7.58197e-07
7.86171e-07
8.12825e-07
8.37414e-07
8.59198e-07
8.77485e-07
8.91725e-07
9.01693e-07
9.07619e-07
9.10187e-07
9.10317e-07
9.0981e-07
9.10003e-07
9.1152e-07
9.14584e-07
9.19167e-07
9.24577e-07
9.29912e-07
9.33786e-07
9.3497e-07
9.3226e-07
9.2527e-07
9.14289e-07
9.00522e-07
8.85473e-07
8.70562e-07
8.56518e-07
8.44119e-07
8.29115e-07
8.22433e-07
7.93407e-07
4.42953e-07
4.4542e-07
4.55468e-07
4.7028e-07
4.88755e-07
5.09557e-07
5.31961e-07
5.55344e-07
5.79451e-07
6.04062e-07
6.29034e-07
6.5394e-07
6.78366e-07
7.0154e-07
7.2278e-07
7.41234e-07
7.56252e-07
7.67442e-07
7.74517e-07
7.77906e-07
7.78133e-07
7.76619e-07
7.7461e-07
7.73226e-07
7.73123e-07
7.74824e-07
7.78246e-07
7.83052e-07
7.88514e-07
7.93684e-07
7.97305e-07
7.98162e-07
7.95303e-07
7.88449e-07
7.78092e-07
7.65431e-07
7.51876e-07
7.3937e-07
7.24812e-07
7.20806e-07
6.98107e-07
3.68692e-07
3.70874e-07
3.79603e-07
3.9184e-07
4.06921e-07
4.23655e-07
4.41247e-07
4.59199e-07
4.77467e-07
4.96083e-07
5.15273e-07
5.35165e-07
5.55769e-07
5.76718e-07
5.97409e-07
6.16864e-07
6.34071e-07
6.48e-07
6.57859e-07
6.63298e-07
6.64303e-07
6.61578e-07
6.56496e-07
6.50282e-07
6.44065e-07
6.38764e-07
6.34879e-07
6.32572e-07
6.31789e-07
6.32239e-07
6.33537e-07
6.34944e-07
6.35634e-07
6.34566e-07
6.31001e-07
6.24683e-07
6.1596e-07
6.06585e-07
5.93953e-07
5.93704e-07
5.62825e-07
3.07831e-07
3.10531e-07
3.18556e-07
3.28758e-07
3.40852e-07
3.5435e-07
3.68549e-07
3.82958e-07
3.97168e-07
4.10964e-07
4.24332e-07
4.37494e-07
4.50877e-07
4.64906e-07
4.79957e-07
4.96133e-07
5.13188e-07
5.30547e-07
5.47333e-07
5.62639e-07
5.75433e-07
5.85111e-07
5.91844e-07
5.95627e-07
5.96954e-07
5.96612e-07
5.95428e-07
5.94072e-07
5.92992e-07
5.92381e-07
5.92271e-07
5.92489e-07
5.92775e-07
5.92583e-07
5.91233e-07
5.87998e-07
5.82425e-07
5.74763e-07
5.63373e-07
5.57235e-07
5.32034e-07
2.59345e-07
2.63698e-07
2.71411e-07
2.79196e-07
2.87292e-07
2.95964e-07
3.05526e-07
3.16188e-07
3.28033e-07
3.40736e-07
3.53793e-07
3.66561e-07
3.78475e-07
3.89108e-07
3.98247e-07
4.05913e-07
4.12231e-07
4.17403e-07
4.2149e-07
4.24563e-07
4.26231e-07
4.26445e-07
4.25519e-07
4.23518e-07
4.20632e-07
4.17132e-07
4.13415e-07
4.09835e-07
4.06669e-07
4.04072e-07
4.02126e-07
4.00876e-07
4.00374e-07
4.00643e-07
4.01578e-07
4.02917e-07
4.0403e-07
4.04957e-07
4.02086e-07
4.09273e-07
3.68513e-07
2.19977e-07
2.26976e-07
2.36344e-07
2.44025e-07
2.49593e-07
2.53362e-07
2.5587e-07
2.57869e-07
2.60172e-07
2.63585e-07
2.68919e-07
2.76927e-07
2.88183e-07
3.02997e-07
3.21253e-07
3.42525e-07
3.66001e-07
3.90742e-07
4.15724e-07
4.39858e-07
4.62537e-07
4.82958e-07
5.00624e-07
5.14863e-07
5.25576e-07
5.32895e-07
5.37191e-07
5.38916e-07
5.38595e-07
5.36691e-07
5.33533e-07
5.29304e-07
5.24067e-07
5.17793e-07
5.10435e-07
5.01948e-07
4.92447e-07
4.81899e-07
4.70112e-07
4.57531e-07
4.48428e-07
1.89362e-07
1.98954e-07
2.10429e-07
2.20378e-07
2.27995e-07
2.32986e-07
2.35072e-07
2.34293e-07
2.30978e-07
2.25804e-07
2.19651e-07
2.13604e-07
2.08645e-07
2.05546e-07
2.04636e-07
2.05785e-07
2.08493e-07
2.12092e-07
2.15982e-07
2.19826e-07
2.23146e-07
2.25931e-07
2.28008e-07
2.29915e-07
2.31953e-07
2.34208e-07
2.36691e-07
2.39344e-07
2.42019e-07
2.44562e-07
2.46809e-07
2.4873e-07
2.50347e-07
2.51909e-07
2.53762e-07
2.56438e-07
2.60182e-07
2.65799e-07
2.70245e-07
2.8385e-07
2.72122e-07
1.66997e-07
1.74766e-07
1.81872e-07
1.90768e-07
2.06505e-07
2.32416e-07
2.67877e-07
3.09613e-07
3.53837e-07
3.97277e-07
4.37586e-07
4.73127e-07
5.03058e-07
5.26959e-07
5.44968e-07
5.5743e-07
5.65064e-07
5.68603e-07
5.68935e-07
5.66747e-07
5.62922e-07
5.60234e-07
5.57166e-07
5.54417e-07
5.52246e-07
5.50718e-07
5.498e-07
5.4936e-07
5.49174e-07
5.48941e-07
5.48319e-07
5.46919e-07
5.44383e-07
5.40315e-07
5.34608e-07
5.27235e-07
5.18343e-07
5.07613e-07
4.96725e-07
4.8766e-07
4.67603e-07
0.129707
0.185474
0.217328
0.232102
0.241509
0.241169
0.235868
0.22963
0.220119
0.209288
0.201399
0.193123
0.186125
0.181025
0.170829
0.161655
0.149161
0.139193
0.129868
0.121407
0.11454
0.107637
0.100439
0.0933331
0.0863294
0.0783306
0.0713529
0.0633846
0.0547782
0.0453035
0.0362069
0.026465
0.0169238
0.00815156
0.00373687
0.0120143
0.0205899
0.0287232
0.036261
0.0428889
0.0486725
0.0534841
0.0571374
0.0599965
0.0615268
0.0623655
0.0622726
0.0613132
0.0596123
0.0573134
0.0545252
0.0513174
0.0478237
0.0441152
0.0403065
0.0365708
0.0328582
0.0292928
0.0258926
0.0226885
0.0196924
0.016891
0.0142932
0.0118936
0.00969399
0.00770638
0.00594151
0.00441952
0.00315148
0.0021396
0.00137402
0.000821292
0.000474482
0.000165841
0.628929
0.510211
0.452462
0.423763
0.403577
0.382626
0.359727
0.337716
0.315221
0.293145
0.274717
0.258103
0.243135
0.232121
0.219549
0.208495
0.19537
0.183523
0.172672
0.16267
0.155864
0.150533
0.145598
0.140832
0.135891
0.129621
0.123993
0.117732
0.110243
0.101458
0.0924084
0.0824159
0.0719437
0.0616164
0.0504911
0.0393856
0.0286281
0.0181227
0.00824111
0.0020684
0.0101009
0.0174935
0.0245373
0.0304534
0.0353684
0.0394439
0.0423523
0.04457
0.0460389
0.046706
0.0466747
0.0460498
0.0449413
0.043418
0.0416061
0.0396096
0.0374413
0.0352257
0.0329848
0.0307692
0.0286048
0.0264878
0.0244297
0.022414
0.0204224
0.0184442
0.0164592
0.0144703
0.0124861
0.0105286
0.00864968
0.00682533
0.00541699
0.00331244
0.561277
0.492088
0.448169
0.420193
0.393347
0.36899
0.345151
0.321697
0.299025
0.277504
0.258175
0.242248
0.22693
0.213788
0.202504
0.192187
0.182726
0.173318
0.164936
0.157696
0.152233
0.15001
0.149475
0.149866
0.150033
0.1487
0.146811
0.144269
0.140272
0.134768
0.128265
0.120642
0.111901
0.103027
0.0931697
0.0828769
0.072596
0.0622394
0.0520017
0.0418286
0.0325097
0.0240937
0.0153734
0.00784651
0.00121502
0.00546104
0.0104369
0.0149849
0.0189719
0.0221387
0.0245411
0.0263165
0.0275048
0.0282018
0.0285105
0.0284052
0.0280356
0.027459
0.0267299
0.0259083
0.0250334
0.0241465
0.0232718
0.022418
0.0215899
0.0207786
0.0199685
0.0191344
0.0182478
0.0172714
0.0162116
0.0149054
0.0138459
0.0114749
0.430366
0.353342
0.301897
0.270573
0.244171
0.223084
0.205213
0.188557
0.173156
0.159045
0.146238
0.136665
0.12748
0.118824
0.11218
0.106009
0.101676
0.0975601
0.094235
0.0921597
0.0900583
0.0911453
0.0944962
0.100103
0.106724
0.113162
0.118239
0.122354
0.124858
0.125761
0.12515
0.123138
0.119477
0.11502
0.109455
0.102993
0.0960847
0.0887068
0.0810499
0.0731308
0.0653556
0.0580922
0.0503784
0.0431693
0.0361176
0.0295416
0.023809
0.0183601
0.0132302
0.00873254
0.00489718
0.00162912
0.00120637
0.00343342
0.00529526
0.0066695
0.00773688
0.00850756
0.00904019
0.00938666
0.00958111
0.00968428
0.00972812
0.00974068
0.00975719
0.00979032
0.00986358
0.00997939
0.0101388
0.0103314
0.0105582
0.010791
0.0109159
0.0114519
0.227382
0.163887
0.121919
0.0978526
0.0806757
0.0683654
0.059177
0.0514891
0.0447188
0.0386588
0.0333939
0.0296456
0.0264975
0.0238051
0.0217894
0.0199679
0.0188381
0.0179731
0.0175146
0.0175124
0.0173245
0.0180775
0.0197794
0.023117
0.028302
0.0354675
0.0434606
0.0520646
0.0603619
0.0679069
0.0742528
0.0793978
0.082953
0.0852385
0.0863769
0.0862804
0.0852197
0.0832667
0.0805781
0.077368
0.0735453
0.0696501
0.0653769
0.060855
0.05627
0.0515506
0.0471294
0.0427868
0.0384347
0.0343099
0.0305161
0.0269966
0.0238071
0.0209287
0.018337
0.0161475
0.0142248
0.0125805
0.0111766
0.0099787
0.00897143
0.00810569
0.00735862
0.00670769
0.00611589
0.00556787
0.0050325
0.0044956
0.00394573
0.00336622
0.0027761
0.00204359
0.00161562
0.000232255
0.0506163
0.0306694
0.018404
0.0122403
0.00850479
0.00611112
0.00456605
0.00344108
0.00249864
0.00169037
0.00105341
0.000650192
0.000418973
0.000315816
0.000249395
0.000193511
0.000143934
0.000110013
9.58199e-05
9.98209e-05
0.000101805
0.000110907
0.000122336
0.000160704
0.0002897
0.000718092
0.00166073
0.00329631
0.00573985
0.00907792
0.0131938
0.017955
0.0229986
0.0280273
0.0329264
0.0373579
0.041196
0.0443868
0.0468779
0.0489383
0.0500529
0.0506718
0.0509334
0.0504881
0.0497696
0.0484903
0.0469978
0.0453228
0.0434013
0.0413475
0.0392312
0.0370929
0.0349644
0.0328916
0.0308662
0.0289529
0.0271429
0.0254363
0.0238402
0.0223428
0.0209439
0.0196294
0.0183868
0.017211
0.0160848
0.0149997
0.0139462
0.0129171
0.011912
0.0109226
0.00997175
0.00898213
0.00820318
0.00688957
0.00273671
0.00114396
0.000452618
0.000210999
0.000109718
6.38956e-05
5.90802e-05
7.39059e-05
8.44777e-05
8.25041e-05
6.69498e-05
4.20383e-05
1.53729e-05
3.55926e-05
6.37475e-05
8.51913e-05
8.69558e-05
7.46464e-05
4.62016e-05
1.19298e-05
3.65671e-05
7.22248e-05
8.99494e-05
9.00644e-05
7.11258e-05
4.35394e-05
1.87422e-05
2.70143e-05
3.79093e-05
5.37436e-05
0.000102237
0.000249547
0.00059873
0.00120551
0.00211987
0.00335937
0.00491847
0.0067583
0.00880672
0.0110892
0.0132746
0.0154103
0.0175848
0.019425
0.0211672
0.0224998
0.0235168
0.0242646
0.0247288
0.0249244
0.0248304
0.0245267
0.0240092
0.0233533
0.022544
0.0215712
0.0205197
0.0193679
0.0181519
0.016885
0.0155749
0.014253
0.0129221
0.011605
0.0103208
0.00908224
0.0079107
0.00681733
0.00581419
0.00490871
0.00410606
0.00340436
0.0028255
0.00214681
0.000387984
0.000257827
0.00017183
0.000137859
0.000110328
7.56675e-05
7.07878e-05
0.000137367
0.000203984
0.000233301
0.000217883
0.000167821
9.49708e-05
5.26354e-05
9.13959e-05
0.000134261
0.000145407
0.000133688
0.000102539
6.36215e-05
5.74374e-05
8.52025e-05
0.000109298
0.000120451
0.000114778
9.75257e-05
6.97833e-05
4.7318e-05
3.69001e-05
4.02866e-05
4.61159e-05
4.82469e-05
4.6536e-05
4.39779e-05
4.07846e-05
3.85046e-05
4.0097e-05
5.06836e-05
8.15825e-05
0.000161813
0.000309732
0.000540339
0.000868188
0.00125061
0.00171122
0.00219378
0.00268548
0.00317042
0.00362749
0.00403209
0.0043481
0.00457981
0.00470547
0.00474061
0.00467392
0.00449901
0.00425109
0.00393058
0.00356166
0.00316212
0.0027477
0.00234064
0.00195159
0.00159405
0.00127624
0.00100143
0.000771216
0.000582945
0.000432792
0.000315998
0.0002275
0.000162592
0.000117156
7.70189e-05
0.000672025
0.000506753
0.000330925
0.000227942
0.00017113
0.000125664
9.76816e-05
0.00013858
0.000203805
0.000242354
0.000242756
0.000209736
0.000152266
9.69654e-05
7.74372e-05
9.46301e-05
0.000107807
0.000106277
8.90031e-05
6.11487e-05
4.53627e-05
5.63354e-05