/*--------------------------------*- C++ -*----------------------------------*\
| =========                 |                                                 |
| \\      /  F ield         | OpenFOAM: The Open Source CFD Toolbox           |
|  \\    /   O peration     | Version:  2312                                  |
|   \\  /    A nd           | Website:  www.openfoam.com                      |
|    \\/     M anipulation  |                                                 |
\*---------------------------------------------------------------------------*/
FoamFile
{
    version     2.0;
    format      ascii;
    arch        "LSB;label=32;scalar=64";
    class       volVectorField;
    location    "50";
    object      momentError;
}
// * * * * * * * * * * * * * * * * * * * * * * * * * * * * * * * * * * * * * //

dimensions      [0 1 -2 0 0 0 0];

internalField   nonuniform List<vector> 
11040
(
(23.7677 -52.971 -2.07307e-15)
(4.08147 -122.829 1.93459e-15)
(15.2457 14.4483 4.6966e-15)
(54.2781 17.4768 -2.85498e-16)
(8.45949 -1.40066 1.41846e-15)
(16.5805 -31.0591 7.67826e-16)
(57.5592 54.4546 -5.23708e-16)
(-72.535 19.6491 -3.67279e-15)
(-216.893 -3.07513 -1.66676e-15)
(-90.6622 -28.7398 -2.42625e-16)
(-4.2919 -31.1947 1.01482e-15)
(-9.70687 -12.7611 2.9961e-15)
(-3.85658 1.73817 -9.53003e-16)
(-13.9707 -2.18114 -3.38689e-16)
(-15.3993 -4.29481 -3.20022e-16)
(-9.96888 -4.61663 -2.41444e-16)
(-21.9344 -2.86717 3.21502e-16)
(-29.0327 -1.98454 1.24614e-15)
(-37.6362 -1.09182 -4.69623e-16)
(-46.8985 0.298547 -1.76819e-16)
(-54.7507 2.02681 1.95755e-15)
(-60.0576 3.36543 -1.20242e-15)
(-59.7903 3.67961 1.18532e-15)
(-52.0164 3.17584 4.15602e-16)
(-40.8787 2.00845 -6.33961e-15)
(-29.1464 0.612411 -4.58597e-15)
(-14.7437 -0.876281 -2.21621e-15)
(-1.68127 -2.40622 -1.94909e-15)
(12.87 -3.98291 -5.15378e-15)
(18.8354 -4.70685 2.73502e-15)
(23.4374 -4.83829 4.77995e-15)
(26.7113 -4.53389 9.85072e-15)
(27.6172 -3.93408 1.04239e-14)
(26.4781 -3.04698 -1.059e-15)
(22.5262 -1.91401 5.159e-15)
(14.5511 -0.602651 2.25688e-15)
(6.90643 1.29448 2.99807e-15)
(-2.32401 3.71169 -1.51848e-15)
(-15.859 5.2379 -4.58493e-15)
(-6.3016 7.08687 -2.83272e-16)
(28.8754 18.2883 -5.8142e-16)
(-38.1886 94.2301 1.24781e-15)
(-49.1785 -193.597 3.5514e-15)
(-15.6019 -157.776 6.14492e-15)
(58.1442 -0.558518 -1.87925e-16)
(49.66 -70.2538 -3.41245e-16)
(-5.02954 -8.33151 4.92388e-17)
(123.774 79.6874 6.54187e-16)
(-188.666 75.589 -4.35997e-17)
(-288.257 -36.9699 -6.24827e-16)
(-84.9312 -51.2968 2.66767e-16)
(-54.1603 -34.2994 -1.10713e-17)
(-27.9231 -13.8161 9.23403e-16)
(-2.43019 4.98227 1.40962e-15)
(-7.21245 1.3362 -1.20898e-16)
(-22.7564 -9.02368 8.26494e-16)
(-28.9527 -12.1801 -8.76452e-16)
(-48.9859 -8.17155 7.14426e-18)
(-65.9759 -6.07533 1.77669e-15)
(-73.5625 -3.68196 5.18984e-17)
(-77.1561 -0.369577 -2.84417e-16)
(-71.9147 2.7517 -1.05296e-15)
(-62.3587 4.36286 1.4594e-15)
(-48.147 4.85565 1.11375e-15)
(-33.3365 5.30856 1.35536e-15)
(-17.93 4.94344 -1.48406e-15)
(-3.82471 4.20219 -3.40225e-15)
(6.65034 3.31813 4.45983e-15)
(14.9066 2.04633 3.51796e-15)
(18.8885 1.09108 -3.28664e-15)
(26.6234 -0.231902 -4.27434e-15)
(31.8788 -0.640518 -6.38867e-15)
(35.3151 -0.476857 -8.28992e-15)
(36.0967 0.318973 -2.97628e-15)
(34.2531 1.10629 2.52523e-15)
(29.4798 1.93001 -3.12146e-15)
(21.834 2.76629 4.00148e-16)
(12.9832 4.0418 -1.30868e-16)
(3.30849 6.84391 1.14273e-16)
(-5.46845 11.3641 8.69924e-16)
(-1.44734 18.3473 -2.53243e-16)
(12.3212 29.6692 1.23554e-16)
(-10.6549 72.8503 4.62054e-17)
(-61.0269 67.9265 -1.48556e-15)
(-124.718 -106.886 -1.15731e-14)
(56.2656 -34.4917 2.51126e-15)
(76.1596 -6.44363 4.25588e-16)
(-19.0105 -29.9444 2.12016e-15)
(3.67424 98.4127 4.58099e-16)
(-237.187 39.5479 1.98154e-15)
(-173.129 -33.2206 -4.52457e-16)
(-121.22 -56.9256 -3.79637e-17)
(-86.357 -54.6684 -4.13461e-16)
(-45.2961 -29.5998 -4.85326e-18)
(-9.9378 -0.83059 7.87122e-16)
(-6.57237 4.18769 1.6386e-15)
(-19.7011 -2.24208 -3.34776e-17)
(-37.5153 -5.83031 6.49167e-16)
(-60.4191 -5.81333 1.30704e-16)
(-66.6868 -6.23831 -7.09053e-17)
(-65.9889 -4.47224 -3.69864e-17)
(-62.4394 -2.45264 5.27491e-16)
(-53.6141 -0.235027 1.12901e-15)
(-44.7423 0.96575 -1.97488e-16)
(-35.1054 1.47309 4.99993e-16)
(-25.1475 2.15192 -1.87912e-15)
(-14.8239 2.0065 1.88349e-15)
(-4.42279 1.41528 5.08928e-15)
(5.97117 0.584003 -2.83767e-15)
(15.6062 -0.877233 -3.43671e-15)
(24.522 -1.948 3.9726e-16)
(32.0743 -3.18705 4.70841e-15)
(37.4015 -3.48818 -7.64573e-16)
(40.7673 -3.27245 7.44377e-16)
(41.3816 -2.40355 4.61049e-15)
(39.3282 -1.48631 9.65293e-16)
(34.5065 -0.466125 -2.76746e-15)
(27.5151 0.73451 -4.13564e-15)
(19.5939 2.73115 7.86651e-16)
(11.2399 6.74602 1.96982e-15)
(4.31232 13.2589 -9.52832e-17)
(7.72597 25.3998 1.25999e-15)
(18.4497 44.4414 1.39548e-16)
(-10.3221 19.1548 -2.2381e-16)
(-16.9433 106.761 -3.39187e-16)
(-85.261 63.1206 3.42074e-15)
(-27.1203 -14.3805 6.03221e-16)
(79.409 -41.8933 -8.29549e-16)
(-8.92153 -57.4767 7.79947e-16)
(-76.5071 97.9326 -4.70029e-16)
(-156.319 37.5266 1.71807e-16)
(-149.528 -23.8618 -3.78404e-16)
(-133.438 -57.5215 1.28928e-16)
(-112.943 -67.5674 1.42422e-15)
(-63.3724 -44.6051 -1.14905e-15)
(-17.3066 -6.93049 8.53445e-16)
(-6.1587 3.9524 -5.75749e-16)
(-21.0219 3.3538 1.11141e-15)
(-42.1405 4.84866 -3.49454e-16)
(-51.4026 1.35511 -9.83753e-16)
(-49.2227 -1.9059 -5.12338e-16)
(-50.6961 -1.82337 6.09099e-17)
(-51.1586 -1.79216 -1.15059e-16)
(-46.8603 -1.68158 -4.08872e-16)
(-41.6135 -1.42633 -4.39203e-16)
(-34.3463 -0.943645 -6.5873e-16)
(-25.6108 0.0500195 -2.13664e-16)
(-15.427 0.207958 -5.71913e-15)
(-4.54681 -0.280918 -2.23959e-15)
(6.46106 -1.31353 1.79848e-15)
(16.5977 -3.04471 2.50011e-15)
(26.0988 -4.50187 4.21517e-15)
(34.3953 -6.04265 -2.9218e-15)
(40.6114 -6.67706 2.03271e-15)
(44.7516 -6.71801 -3.8568e-15)
(46.1219 -5.89864 -4.36281e-15)
(44.6685 -4.68225 -6.19161e-17)
(40.5168 -2.93033 -4.15548e-16)
(34.4243 -0.488244 1.80162e-16)
(27.6623 3.12212 -8.9497e-17)
(20.8153 9.01665 -1.32161e-16)
(16.1248 17.6085 -1.85423e-16)
(20.736 31.2229 -2.62669e-16)
(28.572 45.9723 7.05966e-16)
(-9.8173 12.2304 2.17014e-16)
(-3.78808 59.9708 -2.79263e-17)
(-12.4978 76.3084 -6.52464e-16)
(-51.8957 37.9314 -2.25623e-16)
(8.12091 -46.7054 5.50932e-17)
(-68.9776 -123.741 -1.91189e-16)
(-103.869 -33.4931 -3.25839e-16)
(-110.73 57.4371 -7.85221e-16)
(-134.578 -4.67951 5.40932e-16)
(-125.16 -41.7812 -4.09628e-17)
(-127.658 -65.7557 2.61453e-16)
(-85.0277 -51.4132 4.12312e-16)
(-27.6689 -14.6677 -4.15281e-16)
(-8.80483 0.941923 -8.23455e-17)
(-23.4705 4.89896 1.84415e-16)
(-36.4459 10.0918 -1.40316e-16)
(-33.1971 5.00818 -4.9508e-16)
(-33.9858 1.12481 -5.48072e-16)
(-41.9397 0.455445 -1.28772e-16)
(-46.3704 -0.998642 1.47167e-16)
(-45.4051 -2.7109 4.28421e-16)
(-42.2581 -3.57834 -1.19132e-15)
(-36.1358 -3.46047 -1.89369e-16)
(-27.9462 -2.45693 2.61074e-15)
(-17.922 -2.05005 2.23555e-15)
(-6.87638 -2.38645 -1.04941e-15)
(4.48493 -3.28967 1.99557e-15)
(15.2332 -4.81847 1.5521e-15)
(25.4993 -6.2751 -3.06805e-15)
(34.7065 -7.75357 7.73037e-16)
(42.1083 -8.4785 1.44258e-16)
(47.4425 -8.65404 3.75416e-15)
(50.0647 -8.02608 3.73972e-15)
(49.71 -6.76333 7.52874e-16)
(46.6508 -4.59321 1.20663e-15)
(41.812 -1.1721 2.18874e-16)
(36.5716 3.86347 -4.33893e-16)
(31.4064 11.2052 2.85902e-16)
(29.0692 21.0864 -3.45943e-16)
(34.7341 33.5481 -2.40442e-16)
(37.2461 37.6422 -1.14608e-16)
(-5.16289 13.5916 -8.67442e-17)
(-4.42993 28.6238 1.14227e-16)
(11.2492 46.7014 4.35701e-16)
(-14.7585 48.4418 7.42118e-16)
(-30.868 50.2453 -1.25632e-15)
(-68.7981 -75.3549 -2.37628e-17)
(-170.287 -120.998 -4.55235e-16)
(-115.269 44.1892 -3.16919e-16)
(-114.761 19.1427 -1.12882e-16)
(-111.443 -25.7783 -8.074e-16)
(-113.521 -68.3472 5.04954e-16)
(-99.7927 -71.9843 -2.90098e-17)
(-41.303 -25.4063 -1.12739e-16)
(-13.2865 -3.73264 -1.03184e-15)
(-22.1432 3.26734 5.84504e-17)
(-23.6433 9.53329 -3.50771e-16)
(-18.8707 5.72236 1.90077e-16)
(-25.9432 3.33365 -3.68824e-16)
(-35.9892 2.64626 -1.40971e-16)
(-41.9295 0.0186734 1.05034e-16)
(-42.9688 -3.32161 1.23449e-16)
(-41.8486 -5.51302 1.56201e-16)
(-37.5344 -5.94191 4.90804e-16)
(-30.5907 -5.07851 -1.81451e-15)
(-21.1273 -4.52556 5.96423e-16)
(-10.0795 -4.78652 2.6822e-15)
(1.6096 -5.66885 -2.70898e-15)
(12.9299 -7.02464 -4.01434e-15)
(23.9416 -8.36247 -1.12504e-16)
(34.132 -9.55575 1.85056e-15)
(42.7948 -10.1604 1.30819e-15)
(49.4235 -10.2868 -1.3582e-15)
(53.341 -9.76654 -3.05476e-15)
(54.0989 -8.46494 -1.80807e-15)
(52.1307 -5.92953 1.87875e-16)
(48.5507 -1.62034 1.04055e-15)
(44.9396 4.69371 6.39642e-16)
(41.7533 13.0684 5.40196e-16)
(41.7095 23.3401 8.27567e-16)
(47.2751 33.0998 -5.03394e-16)
(45.8486 29.4835 -4.52713e-16)
(-1.84539 13.9334 7.60519e-17)
(-3.63416 17.3755 -3.53887e-17)
(2.0244 28.1685 -2.02442e-16)
(5.95172 39.3626 -6.29154e-16)
(-8.73696 78.7686 -7.39954e-17)
(-20.6415 81.3928 2.55237e-16)
(-91.5159 -31.1224 1.50189e-16)
(-126.586 8.52881 7.38128e-18)
(-110.546 23.2041 6.3515e-16)
(-97.5175 -15.4197 5.32747e-16)
(-71.7668 -69.1022 2.63823e-17)
(-84.5088 -112.659 -7.0981e-16)
(-51.0151 -55.9844 1.30983e-15)
(-12.095 -10.4249 -9.54486e-16)
(-13.5665 0.310166 4.31795e-16)
(-10.6828 7.18225 -4.25299e-16)
(-10.4917 6.08323 -3.30657e-16)
(-19.1397 5.94537 2.01625e-16)
(-28.7883 5.22607 -7.51763e-17)
(-35.4608 1.75471 -2.72895e-16)
(-38.3227 -3.11065 3.97179e-16)
(-39.4476 -6.91558 -6.43916e-16)
(-37.5168 -8.41879 -4.18136e-16)
(-32.4586 -8.12003 1.10844e-15)
(-24.0757 -7.75298 -3.13025e-16)
(-13.2735 -8.09374 -1.62192e-15)
(-1.26119 -8.95472 -1.51415e-16)
(10.7259 -10.086 2.47438e-16)
(22.6275 -11.1927 4.72762e-16)
(33.9106 -12.0252 4.11844e-16)
(43.7846 -12.3545 6.46631e-16)
(51.5353 -12.304 6.93358e-16)
(56.3988 -11.7431 -4.78414e-16)
(57.865 -10.3219 -1.61131e-15)
(56.5172 -7.41942 -3.79862e-17)
(53.703 -2.32537 1.91358e-15)
(51.1752 4.96129 -5.01374e-16)
(49.5842 14.0592 -2.19593e-16)
(51.6324 24.1073 1.78538e-16)
(57.2602 31.2866 2.71864e-16)
(55.4184 25.6519 -1.43307e-17)
(-0.0660808 13.0294 -1.86201e-17)
(-0.537717 14.9571 2.20667e-17)
(-2.57626 21.193 -2.94381e-17)
(1.97072 31.7424 4.3357e-17)
(6.96578 55.1624 1.43399e-16)
(14.2846 97.1941 6.2231e-16)
(12.0488 107.304 -5.48951e-16)
(-11.241 96.6334 -5.10829e-16)
(-45.7132 91.5727 4.55182e-16)
(-58.4577 8.70822 3.94114e-16)
(-41.5287 -45.8589 -3.18843e-16)
(-31.4091 -104.947 -1.11918e-16)
(-44.5005 -102.907 1.53348e-16)
(-4.1546 -24.7578 -4.92663e-16)
(1.04915 -3.52706 -5.2285e-16)
(0.422144 4.70512 7.06903e-16)
(-2.46126 6.93033 4.71325e-17)
(-10.357 8.95285 6.78931e-16)
(-19.3699 8.41826 -5.13689e-16)
(-26.4821 4.54032 -4.79286e-16)
(-31.075 -1.62157 7.51295e-16)
(-34.5026 -7.17832 -3.32531e-16)
(-35.301 -10.3374 -6.67007e-16)
(-32.7226 -11.3203 4.29885e-17)
(-26.0417 -11.7189 2.35856e-16)
(-15.8278 -12.4159 -6.14862e-16)
(-3.51724 -13.3722 -4.03112e-16)
(9.30215 -14.2979 1.67498e-15)
(22.217 -15.1682 1.57807e-15)
(34.5936 -15.6495 -1.22184e-15)
(45.463 -15.6437 -1.32922e-15)
(53.9384 -15.3112 -5.00596e-16)
(59.2655 -14.5098 1.01085e-15)
(60.9556 -12.7719 9.05117e-16)
(59.8042 -9.36298 -1.504e-18)
(57.2339 -3.58165 -1.02656e-15)
(55.0191 4.32959 4.22331e-16)
(54.0395 13.5553 -2.67959e-16)
(56.8026 22.5714 1.58124e-16)
(62.4574 27.9144 1.81269e-16)
(63.7184 24.4859 1.4733e-16)
(1.27299 12.0301 -6.42623e-17)
(2.19539 13.2224 4.56834e-17)
(1.40558 16.2689 4.18498e-18)
(1.52569 24.682 -8.9242e-17)
(6.73903 36.0033 8.13714e-17)
(19.7665 56.7033 -3.0002e-17)
(39.7105 85.1354 -2.74954e-16)
(75.2126 122.492 5.40163e-16)
(106.106 171.666 -5.39841e-16)
(103.042 166.38 1.13106e-15)
(70.047 66.2469 -2.86103e-16)
(23.2773 -13.8868 -7.72883e-16)
(15.0529 -62.0702 4.27925e-16)
(-1.5543 -52.8608 -6.00773e-16)
(14.3191 -11.4171 -7.79793e-16)
(11.9935 1.93414 2.44789e-16)
(7.73932 7.92805 4.60493e-16)
(0.297334 11.8361 6.7056e-16)
(-8.21469 11.8332 -1.11079e-18)
(-15.4984 8.07626 -7.57329e-16)
(-21.3607 1.23198 8.40462e-16)
(-26.6171 -5.87507 -1.18984e-16)
(-29.9931 -11.0981 5.26748e-17)
(-30.1807 -14.0192 4.78912e-16)
(-25.8118 -15.8014 5.27662e-16)
(-16.8352 -17.2916 1.49034e-15)
(-4.68874 -18.6292 1.44795e-16)
(8.72217 -19.5233 -3.26854e-16)
(22.407 -20.3506 -1.34524e-15)
(35.6251 -20.6002 7.98128e-18)
(47.1357 -20.2906 -2.12511e-16)
(55.9468 -19.5086 4.20219e-16)
(61.374 -18.1605 -5.67156e-16)
(63.1217 -15.6896 -5.46354e-16)
(62.1691 -11.5029 -8.65554e-17)
(59.878 -5.04305 8.98626e-16)
(57.8921 3.11945 5.80549e-17)
(56.7069 11.8705 -2.70771e-16)
(58.5964 19.4723 -9.2687e-17)
(62.7897 23.494 2.44051e-16)
(66.7605 22.5432 9.58969e-17)
(2.48922 10.6591 1.62716e-16)
(3.97376 11.3163 -5.7738e-17)
(4.55327 11.2919 -1.64934e-16)
(6.29826 16.8146 1.3666e-16)
(8.4402 23.4377 -6.75893e-17)
(16.0567 32.6435 6.65486e-17)
(31.7153 40.2918 5.49887e-16)
(62.9526 48.6103 -1.01609e-15)
(122.919 78.5144 5.20614e-17)
(191.44 131.734 1.86596e-15)
(236.439 172.698 4.5783e-16)
(195.85 140.21 -4.82395e-16)
(89.9919 46.1836 -4.80137e-16)
(8.90451 -43.0259 -2.25391e-16)
(12.9262 -33.5107 -5.83673e-16)
(17.6719 -9.01332 3.50387e-16)
(16.8473 6.23253 -2.16463e-16)
(10.9398 13.5634 6.59692e-16)
(3.4277 14.8921 -2.99489e-16)
(-3.45328 11.9465 -6.5134e-16)
(-9.85423 5.2257 4.03497e-16)
(-16.006 -2.78904 -1.06554e-16)
(-21.1134 -9.97295 -6.05247e-16)
(-23.7204 -15.1864 7.01236e-16)
(-22.0233 -18.9696 3.55183e-16)
(-15.1883 -21.8585 -1.10613e-15)
(-4.20379 -24.1658 6.25277e-16)
(8.96247 -25.6314 4.72222e-16)
(22.7177 -26.8756 7.01061e-16)
(36.2619 -27.2927 -1.30729e-16)
(48.0766 -26.7417 2.12864e-16)
(57.0615 -25.3468 5.63808e-16)
(62.616 -22.9732 -4.56679e-17)
(64.6195 -19.2703 5.20385e-16)
(64.1007 -13.895 3.73202e-16)
(62.3592 -6.6522 -5.43934e-16)
(60.645 1.72684 5.20872e-17)
(59.1335 10.0456 2.25244e-16)
(59.691 16.4475 1.23159e-16)
(61.4756 19.4459 -7.44177e-17)
(64.6917 19.2692 -2.35798e-16)
(3.18674 8.71522 1.81039e-17)
(4.90566 9.15698 1.0985e-16)
(5.58863 8.13731 1.11589e-16)
(8.08766 9.87307 -7.52251e-17)
(11.4232 13.4416 -4.31606e-17)
(15.4661 18.2211 2.45148e-16)
(23.2269 21.8979 8.94788e-17)
(37.1115 16.7701 -5.73041e-16)
(65.0018 0.842771 5.82456e-16)
(110.269 -12.9844 -7.09071e-16)
(170.088 10.6235 -1.56761e-15)
(220.436 81.5709 -3.08426e-16)
(227.724 137.696 1.8748e-16)
(167.651 104.322 -7.02588e-16)
(67.3621 21.6603 -9.50381e-17)
(15.0088 -25.0065 1.24434e-16)
(18.5958 -4.66854 3.13291e-16)
(16.8261 8.92404 9.73203e-16)
(12.2574 14.5004 -3.37121e-16)
(7.50129 14.5738 -8.77758e-16)
(2.0982 9.53675 4.03506e-17)
(-3.53087 1.78855 -1.78599e-16)
(-8.8764 -6.58716 -2.50134e-17)
(-12.7746 -13.975 -4.3296e-16)
(-13.4192 -20.0848 1.05787e-15)
(-9.45306 -25.0505 -2.46595e-16)
(-0.981855 -29.1911 -1.03657e-16)
(10.5689 -32.1146 -7.79558e-17)
(23.2174 -34.604 -4.27543e-16)
(36.3158 -35.7423 -6.74662e-17)
(48.0768 -35.1523 -5.36633e-16)
(57.296 -32.8137 -1.09762e-16)
(63.3422 -28.8799 5.30751e-16)
(65.9796 -23.3423 6.59514e-16)
(66.2597 -16.4165 5.99841e-19)
(65.0538 -8.3731 -4.51133e-16)
(63.4146 0.0412475 -9.6477e-17)
(61.4096 7.80896 -3.14307e-16)
(60.6048 13.5569 -4.30377e-16)
(60.3704 16.0398 -3.46922e-16)
(61.0472 15.6267 -1.66216e-17)
(3.34929 6.63758 1.11262e-16)
(4.97256 6.86047 5.84708e-17)
(5.77785 5.86758 -1.19299e-16)
(7.12387 5.84224 -5.12761e-17)
(10.4631 6.64388 1.19102e-16)
(14.5449 8.10527 1.13418e-17)
(19.3223 10.1148 -1.69182e-16)
(25.3982 9.68393 1.01847e-16)
(34.1452 -0.830604 1.51044e-15)
(45.6446 -30.4732 -8.21904e-16)
(59.0435 -68.3296 -1.25452e-15)
(76.3179 -78.3437 1.56469e-15)
(106.235 -22.0667 1.10183e-15)
(157.84 79.3778 -4.47879e-16)
(156.116 99.1493 4.33307e-16)
(110.732 66.4485 -5.91284e-16)
(61.6502 31.3657 -1.68632e-16)
(34.0476 15.9143 1.10394e-15)
(21.2095 14.1805 2.35835e-16)
(14.6673 13.6486 -1.30075e-15)
(11.3114 11.6087 5.96795e-16)
(8.27806 6.22198 -2.93868e-16)
(4.78675 -1.69982 -4.15762e-16)
(1.53266 -10.4394 -6.98573e-17)
(-0.148191 -18.8243 7.69506e-16)
(1.04885 -26.4093 5.7129e-16)
(6.06331 -32.8692 -1.19866e-15)
(14.3127 -38.1226 -2.37358e-16)
(25.0268 -42.1571 5.89165e-16)
(36.4076 -44.8818 -5.81165e-16)
(47.644 -44.4888 3.64181e-16)
(57.1117 -41.1081 2.5109e-16)
(63.819 -35.3939 6.83501e-18)
(67.3849 -27.8 -3.12348e-16)
(68.4411 -19.3375 -3.86361e-16)
(67.5943 -10.6271 2.46331e-17)
(65.765 -2.54241 1.41524e-16)
(62.648 4.42938 1.68917e-16)
(60.6703 9.50707 -5.34839e-17)
(58.8855 11.8855 -2.1377e-17)
(56.8839 11.4979 8.56242e-17)
(3.16501 4.76912 -5.86381e-17)
(4.4476 4.86878 3.5699e-17)
(5.15643 4.00617 3.25931e-17)
(6.05869 3.74419 -1.3756e-16)
(7.54807 3.39481 1.49223e-17)
(10.6763 3.19787 -5.11962e-18)
(14.5099 3.00645 -2.89439e-16)
(18.7263 2.96393 -3.93302e-16)
(23.0416 1.50794 1.66303e-16)
(26.6663 -7.49531 -5.63346e-16)
(26.3566 -31.1065 7.95907e-16)
(19.7556 -65.1165 1.49627e-16)
(10.3816 -86.0351 -4.23021e-16)
(17.4056 -59.7516 -3.39056e-16)
(47.3097 5.23716 3.48904e-16)
(79.5131 57.0929 5.54963e-16)
(83.8227 67.2655 -1.93932e-15)
(69.5314 60.0888 1.86155e-15)
(50.0285 44.3121 2.4707e-16)
(33.3976 27.4073 -7.1992e-16)
(22.9015 15.6532 3.37867e-16)
(17.326 7.74698 -2.56347e-16)
(15.3348 2.50905 -4.39927e-16)
(14.6765 -5.02942 4.52828e-16)
(14.1972 -14.06 9.20459e-16)
(14.3712 -23.3968 -3.6181e-16)
(16.2626 -32.1552 1.54758e-17)
(20.987 -39.6766 -7.29549e-16)
(28.4706 -44.5594 3.89447e-16)
(37.8717 -48.6707 1.63381e-15)
(47.9064 -49.4866 -4.56886e-16)
(56.9107 -46.3794 -7.23172e-16)
(63.6731 -40.0587 2.69311e-16)
(67.3462 -31.6456 -1.93811e-16)
(68.311 -22.6494 -5.59802e-16)
(67.0886 -13.9853 4.57545e-16)
(64.3786 -6.52244 -1.40039e-16)
(60.1658 -0.402743 -1.7934e-16)
(56.8489 3.88077 3.85629e-17)
(54.1192 6.4595 1.39486e-16)
(50.1323 6.98858 -4.48021e-17)
(2.81274 3.25252 6.41193e-17)
(3.75773 3.30373 -4.97067e-17)
(4.26799 2.66354 -6.19482e-17)
(5.00084 2.37212 7.24848e-18)
(5.72739 2.10689 4.53292e-17)
(7.12891 1.71621 8.35174e-17)
(9.37043 1.04174 3.04559e-16)
(12.1836 0.0826236 2.808e-16)
(15.2865 -0.847517 4.48979e-17)
(18.2002 -2.31659 -1.07809e-15)
(19.5148 -7.25476 -4.7247e-16)
(16.5674 -19.5336 -2.69172e-16)
(7.15889 -39.4836 -9.5484e-16)
(-6.18187 -56.5148 7.17669e-16)
(-13.4401 -50.8494 2.76272e-15)
(-3.63846 -19.2783 -1.63637e-15)
(19.5058 17.3415 -1.84434e-16)
(41.0908 44.0001 6.46257e-16)
(52.6516 57.3074 -4.64373e-16)
(53.4304 53.6577 1.69803e-15)
(46.1064 36.9498 -5.73039e-16)
(39.1307 19.98 -1.44627e-15)
(33.5966 6.95191 -1.37571e-15)
(29.9352 -2.81832 9.26999e-16)
(27.7727 -10.5095 1.02237e-15)
(26.6946 -16.36 5.98296e-16)
(27.0609 -22.1476 -4.23642e-16)
(29.2865 -28.8814 2.24234e-16)
(33.5352 -34.2276 3.96153e-16)
(40.9501 -39.0756 1.5272e-16)
(48.6539 -42.6828 1.21069e-16)
(55.3899 -42.0465 -5.54425e-16)
(59.9217 -37.6425 6.31018e-17)
(61.3629 -30.6992 -3.89043e-17)
(60.0828 -22.8771 -1.53251e-16)
(56.5166 -15.4597 7.38789e-18)
(51.5144 -9.11549 2.46993e-16)
(45.2407 -4.14664 -1.58117e-16)
(39.1171 -0.728332 -6.71511e-17)
(35.6824 1.18644 -6.83068e-17)
(28.9472 2.81469 6.18757e-17)
(2.40908 2.10213 -3.38018e-17)
(3.08924 2.10825 4.7421e-17)
(3.45294 1.6631 -2.62659e-18)
(4.03463 1.4286 9.99638e-17)
(4.60679 1.17769 -6.78246e-17)
(5.25172 0.905791 1.83319e-17)
(6.38364 0.555806 1.50602e-16)
(7.84511 -0.144415 -1.4564e-16)
(9.55343 -1.2453 4.01283e-16)
(11.4178 -2.54697 3.09247e-16)
(13.1128 -3.98742 -9.47157e-16)
(13.7574 -6.2074 1.70273e-15)
(11.9929 -11.0695 1.47226e-15)
(6.5607 -20.061 -1.43103e-15)
(-1.80944 -29.2455 -9.79427e-16)
(-8.75145 -30.3378 -7.29571e-16)
(-8.09462 -20.1271 1.70464e-15)
(2.7921 -1.69588 -1.83377e-15)
(20.7764 20.3505 6.5583e-16)
(39.7081 38.2053 7.07429e-16)
(53.6092 43.2947 -4.41595e-16)
(62.3685 36.0776 -1.0301e-15)
(63.3862 21.0494 1.60614e-16)
(61.7829 5.02911 4.87372e-16)
(59.9126 -9.29233 -8.44843e-16)
(58.1833 -21.3222 3.4239e-16)
(56.6822 -30.3975 6.63744e-16)
(55.8021 -36.2257 -1.6499e-15)
(55.5489 -39.0774 5.39253e-16)
(56.2733 -39.5639 6.31448e-16)
(62.5046 -42.6706 -4.16614e-17)
(65.4612 -42.0205 -8.07744e-16)
(66.7598 -37.9168 2.22264e-16)
(66.0542 -31.4434 8.91358e-16)
(63.8712 -24.0598 2.08978e-16)
(60.5895 -16.7388 -2.50694e-16)
(56.5777 -10.1581 -7.5402e-17)
(51.4959 -4.54379 5.93124e-18)
(46.6823 -0.186834 -1.57019e-16)
(41.9085 3.05823 -2.83852e-17)
(37.7102 5.23906 1.12169e-16)
(1.99165 1.27368 -2.72547e-17)
(2.47848 1.22836 1.93794e-17)
(2.7397 0.895055 -1.76298e-17)
(3.20447 0.683004 -8.95304e-17)
(3.66317 0.445466 -1.82656e-17)
(4.11263 0.15998 -2.6447e-16)
(4.68164 -0.192541 -6.05109e-17)
(5.62078 -0.638295 2.90983e-16)
(6.54848 -1.34564 -1.3684e-16)
(7.46425 -2.38085 -5.83036e-18)
(8.3424 -3.66331 -6.93266e-16)
(9.06732 -4.91433 7.59576e-16)
(9.4167 -5.98786 -5.45814e-16)
(8.90722 -7.59539 -1.4835e-15)
(7.02658 -10.7774 1.98085e-15)
(3.84795 -14.6736 8.88994e-16)
(0.798497 -17.0528 4.67498e-16)
(0.456674 -16.3752 -3.54503e-17)
(5.50511 -10.9539 -3.69717e-16)
(17.0707 -0.151428 -4.40291e-16)
(33.4568 11.5812 -1.76663e-16)
(53.463 18.213 4.3606e-16)
(69.6336 15.7814 -1.18521e-15)
(81.6167 6.69116 1.0387e-16)
(89.5469 -6.13857 -3.98639e-17)
(94.286 -20.0769 -6.80323e-16)
(96.228 -32.9893 -9.44593e-16)
(95.6396 -43.1777 2.14281e-15)
(93.3103 -49.5377 2.23583e-15)
(89.1063 -52.1214 -1.92302e-15)
(83.2528 -51.135 -7.98351e-16)
(83.8539 -47.8139 -4.50475e-17)
(79.1982 -40.4546 -5.5934e-16)
(73.0009 -30.479 1.55109e-15)
(66.2076 -19.9074 -6.67018e-16)
(59.2886 -10.0245 -6.96481e-17)
(52.6645 -1.61896 3.64072e-16)
(46.03 4.87673 -2.48257e-16)
(40.5719 9.618 2.691e-16)
(35.6774 12.7127 2.19069e-16)
(32.0434 14.3332 -4.8452e-17)
(1.57295 0.701336 3.59802e-18)
(1.91896 0.616433 3.08116e-17)
(2.10072 0.348049 5.65133e-18)
(2.44697 0.140383 -9.85233e-18)
(2.78742 -0.0964689 3.24245e-17)
(3.1092 -0.3757 -3.81889e-17)
(3.43855 -0.708973 2.47258e-16)
(3.9526 -1.17268 2.38141e-16)
(4.60151 -1.73061 -1.66743e-16)
(5.19482 -2.41844 -2.3785e-16)
(5.68616 -3.27756 -6.46841e-16)
(6.03865 -4.2768 5.89015e-16)
(6.28738 -5.23972 -7.3007e-16)
(6.43357 -5.95198 -4.14744e-16)
(6.40689 -6.62774 9.01429e-16)
(6.06493 -7.70209 5.70049e-16)
(5.38929 -9.2775 8.12071e-16)
(4.66316 -11.4331 -1.46699e-15)
(4.6612 -13.9899 -7.57698e-16)
(6.8204 -15.5723 2.66534e-15)
(12.1474 -14.8547 -1.42398e-15)
(22.4986 -13.582 -2.08528e-16)
(34.4453 -13.9615 1.57141e-16)
(46.4295 -17.6268 -9.92913e-16)
(56.9922 -24.3 1.79013e-15)
(65.1061 -32.5775 -1.44061e-15)
(70.1366 -40.7515 -1.9421e-15)
(71.5452 -47.1463 1.00253e-15)
(69.2273 -50.2658 8.35529e-16)
(64.7391 -49.0511 3.30771e-15)
(57.2913 -44.4838 -2.02004e-15)
(45.5204 -38.0953 -1.24371e-15)
(38.4219 -28.1378 6.30257e-16)
(31.3136 -16.5409 1.77101e-16)
(24.9973 -5.20169 -9.98723e-17)
(19.8649 4.64523 -3.635e-17)
(15.8902 12.4621 1.46443e-16)
(12.8181 17.7875 2.21857e-16)
(10.824 21.4964 -2.22362e-16)
(9.23202 23.352 1.10611e-16)
(8.77472 24.0455 -1.3668e-16)
(1.26838 0.374852 -1.39863e-17)
(1.50558 0.259512 1.72934e-17)
(1.62786 0.0354346 3.24113e-17)
(1.86189 -0.160066 -2.09742e-17)
(2.07855 -0.379107 2.51809e-17)
(2.27472 -0.627456 -2.69913e-16)
(2.46255 -0.906132 -4.52063e-16)
(2.67494 -1.24676 5.20838e-16)
(3.04518 -1.73314 9.72834e-16)
(3.46179 -2.29867 -1.02291e-15)
(3.83409 -2.92077 -1.4112e-16)
(4.11017 -3.6011 1.26885e-15)
(4.2854 -4.34893 -8.90779e-16)
(4.37844 -5.07896 2.9842e-16)
(4.43494 -5.69053 -1.43173e-16)
(4.478 -6.21862 -1.82948e-15)
(4.49961 -6.77529 3.33007e-15)
(4.44989 -7.58764 8.76927e-16)
(4.22858 -9.14688 -2.76349e-15)
(3.82472 -11.7944 2.6453e-15)
(3.60334 -15.0784 -2.43047e-16)
(4.48877 -19.3547 -2.22425e-15)
(5.9904 -23.1951 4.16652e-16)
(7.68425 -27.569 1.00288e-15)
(8.83821 -32.6255 -1.96348e-15)
(8.85199 -37.827 7.88009e-17)
(7.3886 -42.1506 3.21207e-16)
(4.31445 -44.5779 3.39724e-16)
(-0.296546 -44.326 -1.85745e-15)
(-5.52242 -40.7896 1.33164e-15)
(-10.8492 -34.2927 2.33178e-15)
(-15.9393 -25.9131 -5.84454e-16)
(-21.6532 -16.5682 -5.36594e-16)
(-25.8177 -7.04834 -1.27837e-15)
(-27.5917 1.74397 2.96158e-16)
(-27.6684 9.13633 1.78177e-16)
(-26.5855 14.88 1.04975e-16)
(-24.3641 18.5938 4.04408e-17)
(-21.8898 21.2701 1.95118e-16)
(-19.2918 22.4012 1.77961e-16)
(-16.524 22.9095 -6.78157e-17)
(1.02703 0.180195 -3.45741e-17)
(1.19016 0.0591811 -1.95857e-17)
(1.27274 -0.124756 1.22558e-17)
(1.42702 -0.295562 5.96414e-18)
(1.55589 -0.480999 4.8089e-18)
(1.66162 -0.683426 -2.30319e-16)
(1.75736 -0.902581 -2.9263e-17)
(1.85245 -1.14346 3.05253e-16)
(1.97616 -1.45858 -5.3823e-16)
(2.21732 -1.90821 -1.06702e-16)
(2.45204 -2.40593 1.43229e-15)
(2.65292 -2.92541 2.02856e-16)
(2.80891 -3.4653 -1.8717e-15)
(2.90843 -4.02079 4.80643e-16)
(2.95934 -4.56807 5.19722e-16)
(2.98071 -5.08802 -2.42737e-15)
(2.99079 -5.57327 1.31678e-16)
(2.99589 -6.02607 1.21354e-15)
(2.94465 -6.56016 1.53093e-15)
(2.68432 -7.47589 -9.39241e-16)
(2.02653 -9.03935 4.41859e-16)
(1.03962 -11.7811 9.58018e-16)
(-0.41291 -14.6811 -1.84423e-15)
(-2.41541 -17.7524 -7.44253e-16)
(-5.09752 -20.8165 2.12576e-16)
(-8.57301 -23.5789 7.26521e-16)
(-12.8108 -25.5376 -4.14351e-16)
(-17.479 -26.5069 8.10011e-16)
(-22.3683 -25.7204 -3.31411e-16)
(-26.9202 -23.0036 -3.79056e-16)
(-30.545 -18.933 8.8728e-16)
(-33.0253 -13.7884 -5.46618e-16)
(-34.2475 -8.26308 -2.09109e-16)
(-34.1298 -2.82247 9.96775e-16)
(-33.5561 2.03444 -9.00724e-16)
(-32.0395 5.98302 4.68719e-16)
(-29.9544 9.08378 3.83257e-16)
(-27.1184 11.1243 -5.38621e-16)
(-24.4265 12.7356 8.78531e-17)
(-21.6616 13.5204 1.77149e-16)
(-19.1392 14.0406 3.20735e-17)
(0.831206 0.0592212 -1.03917e-17)
(0.945401 -0.0535066 2.5896e-18)
(1.00389 -0.203177 1.81978e-17)
(1.10618 -0.347305 -4.0597e-17)
(1.18139 -0.499342 2.04779e-17)
(1.23429 -0.658845 5.49184e-17)
(1.27816 -0.826656 -1.18973e-16)
(1.31973 -1.00674 3.78462e-17)
(1.36262 -1.20279 1.57763e-16)
(1.45735 -1.4967 -1.3464e-16)
(1.57689 -1.85531 1.9547e-16)
(1.67913 -2.24239 -2.09947e-16)
(1.76266 -2.64984 1.13965e-16)
(1.82209 -3.06479 8.59159e-16)
(1.85413 -3.4811 -1.10178e-15)
(1.85697 -3.90043 -5.16459e-16)
(1.82888 -4.33375 -2.55774e-16)
(1.76739 -4.78116 2.19642e-16)
(1.66621 -5.22852 7.40088e-16)
(1.48724 -5.69999 -3.78182e-16)
(1.13142 -6.29023 -1.05102e-15)
(0.514962 -7.49944 8.61458e-16)
(-0.481914 -8.76452 9.69736e-16)
(-1.92583 -10.1073 -1.63603e-15)
(-3.82359 -11.367 6.87895e-16)
(-6.14874 -12.3913 5.66471e-16)
(-8.82299 -13.0401 -9.59179e-16)
(-11.7134 -13.1674 1.63032e-15)
(-14.4804 -12.6273 -4.01181e-16)
(-17.0723 -11.4616 -1.25958e-15)
(-19.1252 -9.69112 -9.99475e-17)
(-20.5277 -7.48413 1.4826e-15)
(-21.224 -5.05447 -1.14521e-15)
(-21.1864 -2.59246 -3.30379e-16)
(-20.6424 -0.234166 7.28709e-16)
(-19.6775 1.86632 -1.94898e-17)
(-18.5337 3.62847 -5.73869e-17)
(-17.0434 4.93671 -5.36247e-17)
(-15.6192 6.0599 4.8591e-17)
(-14.1229 6.81149 -1.57414e-17)
(-12.7798 7.41972 6.7886e-17)
(0.671534 -0.0140434 1.03553e-17)
(0.751829 -0.114996 -1.83034e-17)
(0.795832 -0.237005 -5.25236e-18)
(0.864914 -0.357958 4.38174e-17)
(0.908216 -0.48292 -1.78248e-17)
(0.932616 -0.610536 -1.52023e-17)
(0.950522 -0.742045 1.16612e-16)
(0.967469 -0.881153 8.83824e-17)
(0.984766 -1.03089 -2.29668e-16)
(1.00903 -1.21084 -1.63676e-16)
(1.07852 -1.47111 4.85743e-17)
(1.12966 -1.74766 -2.60517e-16)
(1.15985 -2.04537 -1.22623e-16)
(1.16705 -2.36218 3.88721e-16)
(1.14946 -2.68973 2.85316e-16)
(1.10469 -3.02496 5.29263e-18)
(1.02787 -3.36956 -1.14307e-16)
(0.910715 -3.73449 -2.05104e-16)
(0.743079 -4.11919 4.30284e-16)
(0.515803 -4.5119 5.24188e-16)
(0.208855 -4.90066 4.63701e-17)
(-0.230775 -5.59222 -9.59538e-16)
(-0.813493 -6.19174 -1.09491e-16)
(-1.59968 -6.77831 6.37016e-16)
(-2.58141 -7.27545 8.26191e-16)
(-3.7329 -7.61158 -3.94568e-16)
(-5.00691 -7.72787 -1.13557e-15)
(-6.33721 -7.59092 -9.13338e-16)
(-7.64502 -7.18193 3.18285e-16)
(-8.84727 -6.51168 8.94603e-16)
(-9.86356 -5.60936 -2.34295e-16)
(-10.6386 -4.53084 3.02422e-16)
(-11.1444 -3.34426 -3.72463e-17)
(-11.3482 -2.11881 6.7449e-17)
(-11.3322 -0.914904 -4.78899e-16)
(-11.1123 0.205779 3.09636e-16)
(-10.7303 1.21898 -6.5813e-19)
(-10.1121 2.07453 1.36653e-16)
(-9.49864 2.85768 -1.63975e-16)
(-8.78583 3.47276 1.92405e-16)
(-8.09638 4.00883 -3.51731e-17)
(0.539913 -0.057475 2.48548e-17)
(0.597442 -0.14532 -7.67762e-18)
(0.631035 -0.246249 -3.14346e-17)
(0.67798 -0.348075 5.26145e-17)
(0.701182 -0.452029 4.67306e-17)
(0.708751 -0.556917 6.0256e-17)
(0.711528 -0.664873 -1.36585e-16)
(0.714827 -0.779335 2.21497e-16)
(0.717733 -0.902692 -4.79455e-16)
(0.722357 -1.04017 -7.3382e-17)
(0.749468 -1.2411 9.01995e-16)
(0.7793 -1.46752 -8.39484e-16)
(0.790879 -1.70345 -6.23765e-17)
(0.779624 -1.95249 7.68953e-16)
(0.740429 -2.21403 5.15808e-16)
(0.67033 -2.48565 2.29364e-16)
(0.565591 -2.76074 -5.19019e-16)
(0.422055 -3.03758 -1.31191e-15)
(0.233409 -3.31322 8.28799e-16)
(-0.00631446 -3.58358 -3.58588e-16)
(-0.300961 -3.8369 6.59448e-16)
(-0.6975 -4.28094 9.6775e-16)
(-1.13722 -4.60548 -1.56936e-15)
(-1.65918 -4.88322 -1.44992e-17)
(-2.2544 -5.08567 8.32134e-16)
(-2.90584 -5.1839 -4.9254e-16)
(-3.59129 -5.15494 9.83449e-18)
(-4.28232 -4.98726 6.56335e-16)
(-4.9503 -4.67995 -1.08116e-15)
(-5.56682 -4.24648 -3.21216e-16)
(-6.10678 -3.70566 9.07856e-16)
(-6.54945 -3.08588 6.14405e-16)
(-6.88039 -2.41363 -3.48463e-16)
(-7.06977 -1.71492 -5.03699e-16)
(-7.15381 -1.01474 2.19487e-16)
(-7.12962 -0.339171 1.40795e-16)
(-7.00771 0.300225 -3.00411e-16)
(-6.72698 0.879561 2.66119e-16)
(-6.43816 1.43442 -1.83958e-16)
(-6.07297 1.90974 3.93922e-17)
(-5.68759 2.35646 9.69107e-17)
(0.430934 -0.0819 -9.58373e-18)
(0.472113 -0.157504 6.43422e-18)
(0.498351 -0.240317 4.14157e-18)
(0.530036 -0.326318 6.3989e-18)
(0.540096 -0.41296 -7.33214e-17)
(0.536631 -0.499624 1.04581e-16)
(0.528808 -0.588527 -1.35004e-16)
(0.520825 -0.683163 2.88932e-16)
(0.512104 -0.785656 1.89915e-16)
(0.502328 -0.899245 -9.21933e-16)
(0.492781 -1.03983 1.02541e-15)
(0.498911 -1.23855 5.99438e-16)
(0.493117 -1.4407 -7.38235e-16)
(0.470591 -1.64636 -1.2095e-15)
(0.427435 -1.85582 3.28909e-16)
(0.359593 -2.06766 5.14197e-16)
(0.263104 -2.27799 -6.78731e-16)
(0.134629 -2.48085 7.54751e-16)
(-0.0292248 -2.66975 -1.89984e-16)
(-0.23145 -2.83788 5.19415e-16)
(-0.47296 -2.97978 -3.03983e-16)
(-0.801576 -3.25393 -1.41221e-15)
(-1.14266 -3.42916 1.08132e-15)
(-1.52247 -3.55657 -3.60191e-16)
(-1.93226 -3.62806 -4.85719e-17)