/*--------------------------------*- C++ -*----------------------------------*\
| =========                 |                                                 |
| \\      /  F ield         | OpenFOAM: The Open Source CFD Toolbox           |
|  \\    /   O peration     | Version:  2312                                  |
|   \\  /    A nd           | Website:  www.openfoam.com                      |
|    \\/     M anipulation  |                                                 |
\*---------------------------------------------------------------------------*/
FoamFile
{
    version     2.0;
    format      ascii;
    arch        "LSB;label=32;scalar=64";
    class       volScalarField;
    location    "50";
    object      nut;
}
// * * * * * * * * * * * * * * * * * * * * * * * * * * * * * * * * * * * * * //

dimensions      [0 2 -1 0 0 0 0];

internalField   nonuniform List<scalar> 
11040
(
6.8206e-05
4.48504e-05
1.67313e-05
0.000137657
0.000184404
0.000267349
0.000371493
0.000446099
0.000222078
0.00022284
0.000276611
0.000298181
0.000250335
0.000180258
0.000177674
0.000199348
0.000213347
0.000357954
0.000463756
0.000544584
0.000612679
0.000671268
0.000721237
0.00076393
0.00079749
0.000821346
0.00083403
0.000837131
0.000829455
0.00081181
0.000787868
0.000758179
0.000723958
0.00068491
0.000642832
0.000599129
0.000555273
0.000509959
0.000457264
0.000390599
0.000409724
2.20931e-05
5.90986e-05
0.000124521
0.000602216
0.000803227
0.00104155
0.00156168
0.00143497
0.00127011
0.00114696
0.00142782
0.00151235
0.00126706
0.00102295
0.00103572
0.00114169
0.00106664
0.00101322
0.000958659
0.000893105
0.000831987
0.000788795
0.00075852
0.000731616
0.00070193
0.000668876
0.000634554
0.000599464
0.000571842
0.000545926
0.000524637
0.000514681
0.000513627
0.000517506
0.000530801
0.000562697
0.000624653
0.000735861
0.000929377
0.00126911
0.00186223
5.50465e-06
2.2618e-05
5.51641e-05
0.000498261
0.00116103
0.00147086
0.0020513
0.0019228
0.00193093
0.00221445
0.00284489
0.00312832
0.00274935
0.00207232
0.00184545
0.00177055
0.00157152
0.00143465
0.00130748
0.00116892
0.00102295
0.000925624
0.000882416
0.000869682
0.000878444
0.000900494
0.000928947
0.000961163
0.000990132
0.00101613
0.00103385
0.00104653
0.00105342
0.00106338
0.00108591
0.00114035
0.00125433
0.00147235
0.00186254
0.00254422
0.003673
5.20754e-06
9.37799e-06
3.14568e-06
0.00021742
0.00081622
0.00158816
0.00218433
0.00229614
0.00253467
0.00322387
0.00428879
0.00472941
0.0039927
0.00296413
0.00255111
0.00232442
0.00213221
0.00208046
0.00201571
0.00198514
0.00187015
0.00174062
0.0016545
0.0016295
0.00164862
0.00169011
0.00173659
0.00178164
0.00181542
0.00184153
0.00185278
0.00185163
0.00183664
0.00181761
0.00180784
0.00183734
0.00194917
0.00221932
0.00276845
0.00379087
0.00549167
5.81252e-06
8.03581e-06
1.36785e-06
1.47714e-05
0.000329763
0.00100194
0.0021038
0.00263555
0.00329698
0.00413958
0.00515859
0.00578105
0.00498731
0.00377403
0.00325096
0.00306352
0.00313138
0.00340591
0.00363386
0.00364287
0.00346745
0.00323531
0.00304709
0.00294961
0.00292528
0.00294008
0.00296583
0.00298955
0.00299955
0.00299744
0.0029747
0.0029319
0.00286657
0.00278769
0.00271168
0.00266985
0.00270972
0.00293068
0.00350843
0.00470418
0.00640376
6.07067e-06
6.83481e-06
5.28919e-06
2.28312e-07
1.95864e-05
0.000367677
0.00142449
0.00312062
0.00444358
0.00527149
0.00594978
0.00650537
0.0058374
0.00459947
0.00413754
0.00429586
0.0049162
0.00576273
0.00620198
0.00622953
0.00599117
0.00565238
0.00533798
0.00512531
0.00500482
0.00493419
0.00487746
0.0048167
0.0047402
0.00464929
0.00453622
0.0043991
0.00423671
0.00405709
0.00387409
0.0037133
0.00361754
0.00365643
0.00400104
0.00495194
0.00650997
6.21581e-06
5.99403e-06
7.38546e-06
3.0824e-06
3.07043e-09
2.7752e-07
0.000515727
0.0023051
0.00493997
0.00672535
0.00733592
0.00717198
0.0067209
0.00569687
0.00546741
0.00621008
0.00771901
0.0088713
0.00959704
0.00988081
0.00975126
0.00936906
0.00894088
0.00857831
0.00827729
0.00800522
0.00773956
0.00746982
0.0071889
0.00690494
0.00661423
0.00631704
0.00601421
0.00571053
0.00540891
0.00511839
0.00484558
0.00460444
0.004546
0.00493432
0.00607492
6.16119e-06
6.16274e-06
6.20152e-06
7.66988e-06
1.20826e-06
1.17972e-08
0.000160812
0.00084874
0.00351824
0.00696538
0.00865358
0.00853661
0.00781518
0.00727319
0.00739447
0.00914713
0.0109128
0.0123931
0.0135286
0.0142269
0.0144515
0.0142826
0.0138846
0.0134139
0.0129062
0.0123697
0.0118094
0.0112289
0.0106296
0.0100352
0.00945158
0.0088845
0.00833791
0.00781548
0.00731725
0.00684504
0.00639398
0.00596282
0.00557475
0.00532824
0.00558741
6.15271e-06
6.20448e-06
6.01329e-06
6.61951e-06
7.71553e-06
4.80255e-07
3.81586e-09
4.46341e-07
0.00123808
0.00440309
0.00807134
0.00980999
0.00952612
0.00918291
0.010137
0.0120975
0.0141474
0.0161053
0.0178223
0.0191477
0.0199761
0.0202838
0.0201587
0.019764
0.0191762
0.01844
0.0175882
0.0166469
0.0156434
0.0146194
0.0136069
0.0126274
0.011696
0.0108203
0.0100009
0.00923622
0.00851234
0.00780492
0.00709756
0.00643201
0.00593455
6.1568e-06
6.14629e-06
6.19881e-06
5.96875e-06
7.11786e-06
7.29589e-06
1.93348e-08
5.6074e-08
2.6077e-05
0.00135861
0.00415807
0.00733285
0.0101605
0.0114891
0.0126098
0.0146059
0.0170295
0.0196129
0.022107
0.0243078
0.0260449
0.0271717
0.0276737
0.0276895
0.0273038
0.0265762
0.0255592
0.0243038
0.0228661
0.021321
0.0197417
0.0181836
0.0166859
0.015271
0.0139478
0.0127215
0.0115781
0.0104825
0.00939971
0.00833361
0.00732015
6.14685e-06
6.15059e-06
6.15335e-06
6.14824e-06
5.98692e-06
7.65104e-06
5.88177e-06
2.02639e-08
1.98275e-07
2.71388e-05
0.00100458
0.0028621
0.00533332
0.00839741
0.0124477
0.0158995
0.0189664
0.0223145
0.0257612
0.0290915
0.0320781
0.0344283
0.035997
0.0368679
0.0370984
0.0367383
0.0358439
0.034478
0.0327191
0.0306704
0.0284556
0.0261814
0.0239316
0.0217605
0.0197002
0.0177781
0.0159956
0.0143195
0.0127113
0.0111754
0.00972358
6.14138e-06
6.14493e-06
6.1416e-06
6.16052e-06
6.09933e-06
6.09189e-06
7.9143e-06
4.35081e-06
1.62854e-08
2.25908e-08
2.27643e-08
0.00048315
0.00147748
0.00302087
0.00569826
0.0105315
0.0169687
0.022771
0.0277784
0.0325324
0.0370923
0.0410729
0.0441847
0.0464293
0.0478004
0.0483136
0.0480061
0.0469274
0.0451577
0.0428068
0.0400403
0.0370189
0.0338921
0.0307687
0.027727
0.0248386
0.0221434
0.0196286
0.0172647
0.0150705
0.0130584
6.13722e-06
6.13847e-06
6.13958e-06
6.1368e-06
6.15744e-06
6.06077e-06
6.26454e-06
7.59752e-06
4.01837e-06
6.22927e-09
7.0264e-10
4.21809e-05
0.000136778
0.000545827
0.00129186
0.00308556
0.00758992
0.0155421
0.0246578
0.032657
0.0395515
0.0455713
0.050647
0.0547733
0.0578446
0.059826
0.0607051
0.0604928
0.0592285
0.0570047
0.0539928
0.0503839
0.0463941
0.042214
0.0379974
0.0338917
0.0300091
0.0263846
0.0230161
0.0199504
0.017197
6.1337e-06
6.13487e-06
6.13552e-06
6.13581e-06
6.13626e-06
6.14255e-06
6.07232e-06
6.33224e-06
7.05796e-06
4.77939e-06
4.59348e-07
3.12101e-09
2.93468e-07
7.60782e-10
5.6256e-05
0.000268621
0.00119267
0.0047137
0.012575
0.0238041
0.0353484
0.0451096
0.0529689
0.0594416
0.0646556
0.0686154
0.0712759
0.0725645
0.0724521
0.0709613
0.0681988
0.0643686
0.0597123
0.0545121
0.0490344
0.043544
0.0382665
0.0333271
0.028784
0.0247185
0.0211397
6.13063e-06
6.13159e-06
6.13216e-06
6.1331e-06
6.13352e-06
6.1366e-06
6.13175e-06
6.10591e-06
6.27424e-06
6.70273e-06
5.84954e-06
2.04397e-06
1.42686e-07
2.43182e-09
4.24691e-08
1.7955e-06
0.000137491
0.000146844
0.00223212
0.00855108
0.0195689
0.0327022
0.0450261
0.0554338
0.0637861
0.0702715
0.0750393
0.0781383
0.0795769
0.0793471
0.077382
0.0737798
0.0687897
0.0627975
0.0562221
0.0494869
0.0429486
0.0368526
0.03132
0.0264575
0.0222846
6.12793e-06
6.12883e-06
6.12945e-06
6.13039e-06
6.13148e-06
6.13239e-06
6.13479e-06
6.1302e-06
6.12481e-06
6.19359e-06
6.45603e-06
6.49161e-06
4.81002e-06
2.29153e-06
1.03463e-06
5.0918e-12
3.11852e-11
1.83595e-07
0.000332
0.000694626
0.00425949
0.0118539
0.0224025
0.0341309
0.0453506
0.0550136
0.0626482
0.0681209
0.0714637
0.0727731
0.0720532
0.069119
0.0643356
0.0583475
0.051731
0.0449929
0.03852
0.0325784
0.0272798
0.0227045
0.01887
6.12566e-06
6.1263e-06
6.1268e-06
6.12766e-06
6.12875e-06
6.12973e-06
6.13091e-06
6.13225e-06
6.1311e-06
6.12986e-06
6.14535e-06
6.29e-06
6.49615e-06
6.07728e-06
5.68305e-06
4.54752e-06
3.95593e-07
3.61561e-09
0
3.04008e-05
1.34175e-12
0.00103276
0.00391307
0.00914261
0.0159253
0.0232521
0.0301443
0.0358806
0.0400383
0.042432
0.0430517
0.0421115
0.039737
0.0362692
0.0321611
0.0278394
0.02363
0.0197657
0.0163385
0.0134054
0.0109882
6.12376e-06
6.12408e-06
6.12441e-06
6.12514e-06
6.12603e-06
6.12688e-06
6.12759e-06
6.12863e-06
6.12946e-06
6.13073e-06
6.12998e-06
6.12885e-06
6.19892e-06
6.29305e-06
6.1933e-06
6.77191e-06
6.66284e-06
3.07545e-06
1.64962e-08
6.01262e-12
9.25337e-17
6.26357e-05
0.000362325
0.000125045
0.00107592
0.00288144
0.00518835
0.00756696
0.00961096
0.0110418
0.0117183
0.0116297
0.0109809
0.00997155
0.00874799
0.00745396
0.00619834
0.00506122
0.00406913
0.00323699
0.00256732
6.12232e-06
6.12245e-06
6.12264e-06
6.1232e-06
6.12384e-06
6.12439e-06
6.12487e-06
6.12537e-06
6.12621e-06
6.12707e-06
6.12947e-06
6.12903e-06
6.12787e-06
6.15548e-06
6.14688e-06
6.12129e-06
6.68675e-06
7.12354e-06
5.47451e-06
1.13393e-07
1.97291e-09
3.30301e-13
0
5.31599e-08
5.77838e-05
0.000224883
0.000406728
0.000608456
0.000120277
0.000316981
0.000450316
0.000532874
0.000540755
0.000493968
0.000415362
0.000323017
0.000233979
0.000155519
8.67985e-05
3.30529e-05
2.82462e-06
6.12143e-06
6.12128e-06
6.12123e-06
6.12154e-06
6.12189e-06
6.12216e-06
6.1224e-06
6.1227e-06
6.12322e-06
6.12406e-06
6.12531e-06
6.12758e-06
6.12887e-06
6.129e-06
6.14172e-06
6.10551e-06
6.1259e-06
6.29197e-06
7.18579e-06
6.01914e-06
2.99856e-06
6.93198e-09
5.36731e-10
2.7662e-11
2.03978e-13
0
0
0
2.95894e-08
7.92286e-07
2.74716e-06
4.72612e-06
4.63977e-06
3.13566e-06
1.52838e-06
5.44328e-07
1.48764e-07
3.37371e-08
5.80815e-09
8.36689e-10
3.73485e-11
6.12085e-06
6.12029e-06
6.11992e-06
6.11994e-06
6.12002e-06
6.12004e-06
6.12007e-06
6.12023e-06
6.12058e-06
6.12123e-06
6.12219e-06
6.12364e-06
6.12579e-06
6.12755e-06
6.13082e-06
6.13387e-06
6.1202e-06
6.09861e-06
6.19069e-06
6.64757e-06
7.15276e-06
5.63555e-06
2.64558e-06
7.06266e-07
5.85042e-09
5.26756e-10
6.15077e-11
3.02312e-11
1.44255e-11
7.25268e-12
3.94743e-12
2.45641e-12
1.80119e-12
1.54474e-12
1.47932e-12
1.53077e-12
1.65799e-12
1.88778e-12
2.09832e-12
2.36678e-12
2.59796e-12
6.12035e-06
6.11929e-06
6.11859e-06
6.11837e-06
6.11826e-06
6.11813e-06
6.11805e-06
6.1181e-06
6.11835e-06
6.11886e-06
6.11969e-06
6.12083e-06
6.1223e-06
6.12438e-06
6.12625e-06
6.12944e-06
6.13096e-06
6.13376e-06
6.10125e-06
6.13374e-06
6.31748e-06
6.86441e-06
6.98067e-06
6.47428e-06
5.16872e-06
3.53752e-06
2.10891e-06
1.16305e-06
6.16634e-07
3.4162e-07
2.03809e-07
1.38539e-07
1.10755e-07
1.02358e-07
1.06241e-07
1.19478e-07
1.41294e-07
1.69779e-07
2.05926e-07
2.4998e-07
3.00098e-07
6.11976e-06
6.11827e-06
6.11734e-06
6.11699e-06
6.1168e-06
6.11661e-06
6.11648e-06
6.11648e-06
6.11666e-06
6.11704e-06
6.11767e-06
6.11863e-06
6.11987e-06
6.1214e-06
6.12326e-06
6.1253e-06
6.1272e-06
6.13179e-06
6.13265e-06
6.12167e-06
6.10001e-06
6.17439e-06
6.36931e-06
6.62722e-06
6.90612e-06
7.03118e-06
6.9482e-06
6.67688e-06
6.29287e-06
5.87896e-06
5.48966e-06
5.15794e-06
4.89884e-06
4.70838e-06
4.58095e-06
4.50861e-06
4.48556e-06
4.49266e-06
4.5299e-06
4.5879e-06
4.66455e-06
6.11904e-06
6.11734e-06
6.11637e-06
6.11602e-06
6.11584e-06
6.11567e-06
6.11553e-06
6.1155e-06
6.11561e-06
6.11588e-06
6.11633e-06
6.11705e-06
6.11806e-06
6.11931e-06
6.12082e-06
6.12258e-06
6.1244e-06
6.12633e-06
6.13002e-06
6.13312e-06
6.12856e-06
6.1161e-06
6.11798e-06
6.1519e-06
6.22994e-06
6.34727e-06
6.4891e-06
6.63522e-06
6.76679e-06
6.87429e-06
6.95519e-06
7.01117e-06
7.04694e-06
7.06803e-06
7.0787e-06
7.08242e-06
7.08161e-06
7.07772e-06
7.07178e-06
7.06339e-06
7.0549e-06
6.11827e-06
6.11673e-06
6.11593e-06
6.11567e-06
6.11554e-06
6.1154e-06
6.11525e-06
6.11517e-06
6.11519e-06
6.11534e-06
6.11562e-06
6.11609e-06
6.11682e-06
6.11779e-06
6.11899e-06
6.12042e-06
6.12206e-06
6.12376e-06
6.12576e-06
6.12851e-06
6.13174e-06
6.13241e-06
6.12925e-06
6.12429e-06
6.12134e-06
6.12492e-06
6.13848e-06
6.16312e-06
6.19709e-06
6.23722e-06
6.28003e-06
6.32244e-06
6.36207e-06
6.39794e-06
6.4292e-06
6.45546e-06
6.47633e-06
6.49348e-06
6.50637e-06
6.51584e-06
6.52069e-06
6.11767e-06
6.11685e-06
6.11621e-06
6.11601e-06
6.1159e-06
6.11575e-06
6.11556e-06
6.1154e-06
6.11531e-06
6.11532e-06
6.11542e-06
6.11567e-06
6.11612e-06
6.1168e-06
6.1177e-06
6.11881e-06
6.12013e-06
6.12164e-06
6.12329e-06
6.12513e-06
6.12738e-06
6.13004e-06
6.1325e-06
6.13413e-06
6.13449e-06
6.13361e-06
6.13201e-06
6.13052e-06
6.12992e-06
6.13072e-06
6.1331e-06
6.13697e-06
6.14205e-06
6.14807e-06
6.1547e-06
6.16166e-06
6.16869e-06
6.1758e-06
6.18282e-06
6.18961e-06
6.19597e-06
6.11735e-06
6.11746e-06
6.11712e-06
6.11694e-06
6.11682e-06
6.11663e-06
6.1164e-06
6.11615e-06
6.11593e-06
6.11577e-06
6.1157e-06
6.11573e-06
6.11593e-06
6.11633e-06
6.11693e-06
6.11773e-06
6.11873e-06
6.11993e-06
6.1213e-06
6.12283e-06
6.12452e-06
6.12643e-06
6.12858e-06
6.13094e-06
6.13339e-06
6.13574e-06
6.13786e-06
6.13968e-06
6.1412e-06
6.14252e-06
6.14377e-06
6.14507e-06
6.14655e-06
6.14825e-06
6.15024e-06
6.15253e-06
6.15517e-06
6.15805e-06
6.16128e-06
6.16459e-06
6.16859e-06
6.11739e-06
6.11825e-06
6.1184e-06
6.11833e-06
6.11822e-06
6.11801e-06
6.11772e-06
6.11737e-06
6.11701e-06
6.11668e-06
6.11643e-06
6.11626e-06
6.11623e-06
6.11635e-06
6.11667e-06
6.11717e-06
6.11787e-06
6.11874e-06
6.1198e-06
6.12103e-06
6.1224e-06
6.12391e-06
6.12555e-06
6.12733e-06
6.12924e-06
6.13129e-06
6.13345e-06
6.13571e-06
6.13803e-06
6.14039e-06
6.14278e-06
6.14519e-06
6.14763e-06
6.1501e-06
6.15263e-06
6.15521e-06
6.15786e-06
6.16055e-06
6.16339e-06
6.16612e-06
6.16931e-06
6.1177e-06
6.11895e-06
6.11948e-06
6.11974e-06
6.11983e-06
6.11973e-06
6.11942e-06
6.11895e-06
6.11839e-06
6.11792e-06
6.11751e-06
6.11719e-06
6.11696e-06
6.11686e-06
6.11692e-06
6.11714e-06
6.11754e-06
6.11811e-06
6.11885e-06
6.11976e-06
6.12081e-06
6.12201e-06
6.1233e-06
6.12469e-06
6.12616e-06
6.12771e-06
6.12932e-06
6.13102e-06
6.13279e-06
6.13465e-06
6.13659e-06
6.1386e-06
6.14068e-06
6.14284e-06
6.14506e-06
6.14733e-06
6.14967e-06
6.15203e-06
6.1545e-06
6.15687e-06
6.15955e-06
6.11802e-06
6.11939e-06
6.12015e-06
6.1207e-06
6.12104e-06
6.1211e-06
6.12086e-06
6.12041e-06
6.11988e-06
6.11936e-06
6.11882e-06
6.11838e-06
6.11802e-06
6.11776e-06
6.1176e-06
6.11758e-06
6.1177e-06
6.11798e-06
6.11841e-06
6.11901e-06
6.11975e-06
6.12062e-06
6.1216e-06
6.12267e-06
6.1238e-06
6.12499e-06
6.12623e-06
6.12751e-06
6.12884e-06
6.13023e-06
6.13168e-06
6.13319e-06
6.13476e-06
6.13641e-06
6.13813e-06
6.1399e-06
6.14175e-06
6.14363e-06
6.14562e-06
6.14754e-06
6.14975e-06
6.11811e-06
6.11948e-06
6.12041e-06
6.12124e-06
6.12188e-06
6.12218e-06
6.12209e-06
6.12172e-06
6.12119e-06
6.12063e-06
6.12013e-06
6.1197e-06
6.11928e-06
6.11891e-06
6.11861e-06
6.11839e-06
6.11827e-06
6.11828e-06
6.11843e-06
6.11872e-06
6.11915e-06
6.11971e-06
6.12039e-06
6.12115e-06
6.12198e-06
6.12286e-06
6.12379e-06
6.12474e-06
6.12574e-06
6.12677e-06
6.12785e-06
6.12898e-06
6.13017e-06
6.13141e-06
6.13271e-06
6.13408e-06
6.13551e-06
6.13698e-06
6.13854e-06
6.14006e-06
6.14185e-06
6.11797e-06
6.11926e-06
6.12027e-06
6.12132e-06
6.12227e-06
6.12286e-06
6.12303e-06
6.12283e-06
6.1224e-06
6.12186e-06
6.12133e-06
6.12087e-06
6.1205e-06
6.12015e-06
6.1198e-06
6.11947e-06
6.11918e-06
6.11897e-06
6.11885e-06
6.11885e-06
6.11898e-06
6.11924e-06
6.11961e-06
6.12008e-06
6.12062e-06
6.12122e-06
6.12186e-06
6.12254e-06
6.12325e-06
6.12399e-06
6.12477e-06
6.12559e-06
6.12645e-06
6.12735e-06
6.12831e-06
6.12933e-06
6.1304e-06
6.13151e-06
6.13271e-06
6.13387e-06
6.13529e-06
6.11764e-06
6.11878e-06
6.11974e-06
6.12092e-06
6.12213e-06
6.12306e-06
6.12356e-06
6.12364e-06
6.12341e-06
6.12299e-06
6.1225e-06
6.12202e-06
6.1216e-06
6.12127e-06
6.121e-06
6.12066e-06
6.12029e-06
6.11993e-06
6.11962e-06
6.11938e-06
6.11924e-06
6.11921e-06
6.11928e-06
6.11946e-06
6.11971e-06
6.12003e-06
6.1204e-06
6.12082e-06
6.12128e-06
6.12177e-06
6.12229e-06
6.12284e-06
6.12343e-06
6.12405e-06
6.12472e-06
6.12542e-06
6.12618e-06
6.12697e-06
6.12784e-06
6.12868e-06
6.12977e-06
6.11714e-06
6.11806e-06
6.11887e-06
6.12006e-06
6.12145e-06
6.12269e-06
6.12358e-06
6.12404e-06
6.12413e-06
6.12393e-06
6.12357e-06
6.12314e-06
6.12271e-06
6.12234e-06
6.12203e-06
6.12179e-06
6.12155e-06
6.12117e-06
6.12074e-06
6.12032e-06
6.11996e-06
6.11967e-06
6.11947e-06
6.11935e-06
6.11931e-06
6.11935e-06
6.11945e-06
6.11961e-06
6.11982e-06
6.12008e-06
6.12036e-06
6.12068e-06
6.12104e-06
6.12142e-06
6.12184e-06
6.12229e-06
6.12278e-06
6.12329e-06
6.12387e-06
6.12442e-06
6.12522e-06
6.11645e-06
6.11717e-06
6.11775e-06
6.11882e-06
6.12026e-06
6.12174e-06
6.12298e-06
6.12388e-06
6.12439e-06
6.12455e-06
6.12445e-06
6.12417e-06
6.1238e-06
6.12343e-06
6.12308e-06
6.12279e-06
6.12258e-06
6.12241e-06
6.12215e-06
6.12168e-06
6.12115e-06
6.12065e-06
6.12021e-06
6.11983e-06
6.11951e-06
6.11927e-06
6.1191e-06
6.11899e-06
6.11895e-06
6.11897e-06
6.11903e-06
6.11913e-06
6.11927e-06
6.11944e-06
6.11964e-06
6.11987e-06
6.12013e-06
6.12041e-06
6.12074e-06
6.12103e-06
6.12157e-06
6.11557e-06
6.11614e-06
6.11649e-06
6.11735e-06
6.1187e-06
6.12026e-06
6.12177e-06
6.12305e-06
6.12401e-06
6.12463e-06
6.12491e-06
6.12492e-06
6.12474e-06
6.12445e-06
6.12411e-06
6.12378e-06
6.12352e-06
6.12334e-06
6.12321e-06
6.12305e-06
6.12274e-06
6.12218e-06
6.12155e-06
6.12093e-06
6.12036e-06
6.11985e-06
6.1194e-06
6.11902e-06
6.11871e-06
6.11847e-06
6.11829e-06
6.11817e-06
6.11809e-06
6.11806e-06
6.11806e-06
6.11809e-06
6.11815e-06
6.11823e-06
6.11835e-06
6.11841e-06
6.11873e-06
6.11445e-06
6.11499e-06
6.11517e-06
6.11579e-06
6.11694e-06
6.11842e-06
6.12001e-06
6.12155e-06
6.12289e-06
6.12396e-06
6.1247e-06
6.12512e-06
6.12526e-06
6.1252e-06
6.12499e-06
6.12469e-06
6.12439e-06
6.12416e-06
6.12401e-06
6.12391e-06
6.12382e-06
6.12362e-06
6.12323e-06
6.1226e-06
6.12185e-06
6.12111e-06
6.12041e-06
6.11977e-06
6.11919e-06
6.11867e-06
6.11823e-06
6.11786e-06
6.11755e-06
6.11729e-06
6.11708e-06
6.11691e-06
6.11678e-06
6.11668e-06
6.11661e-06
6.11649e-06
6.11662e-06
6.11304e-06
6.11368e-06
6.11383e-06
6.11426e-06
6.11516e-06
6.11642e-06
6.11791e-06
6.11949e-06
6.12104e-06
6.12245e-06
6.12362e-06
6.12449e-06
6.12506e-06
6.12535e-06
6.12541e-06
6.12528e-06
6.12505e-06
6.1248e-06
6.12461e-06
6.12448e-06
6.12442e-06
6.12436e-06
6.12425e-06
6.12401e-06
6.12357e-06
6.12291e-06
6.12206e-06
6.1212e-06
6.12038e-06
6.11962e-06
6.11891e-06
6.11827e-06
6.11769e-06
6.11719e-06
6.11675e-06
6.11637e-06
6.11603e-06
6.11574e-06
6.1155e-06
6.11522e-06
6.11516e-06
6.11123e-06
6.1121e-06
6.11238e-06
6.11274e-06
6.11342e-06
6.1144e-06
6.11564e-06
6.11707e-06
6.11861e-06
6.12016e-06
6.12161e-06
6.12286e-06
6.12386e-06
6.12457e-06
6.12501e-06
6.1252e-06
6.12517e-06
6.12503e-06
6.12485e-06
6.1247e-06
6.12462e-06
6.12458e-06
6.12456e-06
6.12451e-06
6.12438e-06
6.12412e-06
6.12367e-06
6.123e-06
6.12213e-06
6.12116e-06
6.12022e-06
6.11933e-06
6.1185e-06
6.11774e-06
6.11705e-06
6.11642e-06
6.11587e-06
6.11537e-06
6.11494e-06
6.1145e-06
6.11428e-06
6.10893e-06
6.11009e-06
6.11062e-06
6.11105e-06
6.11161e-06
6.11234e-06
6.11329e-06
6.11446e-06
6.11581e-06
6.11729e-06
6.1188e-06
6.12026e-06
6.12158e-06
6.12268e-06
6.12353e-06
6.1241e-06
6.12442e-06
6.12452e-06
6.12448e-06
6.12439e-06
6.12431e-06
6.12425e-06
6.12424e-06
6.12427e-06
6.12429e-06
6.12426e-06
6.12412e-06
6.12384e-06
6.12339e-06
6.12275e-06
6.12192e-06
6.12095e-06
6.1199e-06
6.11889e-06
6.11794e-06
6.11707e-06
6.11627e-06
6.11556e-06
6.11492e-06
6.11432e-06
6.11394e-06
6.10604e-06
6.10746e-06
6.10827e-06
6.10888e-06
6.10943e-06
6.11004e-06
6.11077e-06
6.11167e-06
6.11276e-06
6.11403e-06
6.11543e-06
6.1169e-06
6.11835e-06
6.11969e-06
6.12087e-06
6.12182e-06
6.12252e-06
6.12296e-06
6.12319e-06
6.12327e-06
6.12327e-06
6.12324e-06
6.12324e-06
6.12327e-06
6.12334e-06
6.12343e-06
6.12348e-06
6.12345e-06
6.12331e-06
6.12301e-06
6.12256e-06
6.12194e-06
6.12118e-06
6.1203e-06
6.11934e-06
6.11833e-06
6.11731e-06
6.11633e-06
6.11545e-06
6.11463e-06
6.11401e-06
6.1025e-06
6.10402e-06
6.10506e-06
6.10584e-06
6.1065e-06
6.10711e-06
6.10776e-06
6.1085e-06
6.10939e-06
6.11044e-06
6.11165e-06
6.11299e-06
6.11439e-06
6.1158e-06
6.11714e-06
6.11835e-06
6.11937e-06
6.12016e-06
6.12071e-06
6.12107e-06
6.12127e-06
6.12137e-06
6.12143e-06
6.1215e-06
6.1216e-06
6.12173e-06
6.12187e-06
6.122e-06
6.12206e-06
6.12203e-06
6.12188e-06
6.12159e-06
6.12115e-06
6.12057e-06
6.11988e-06
6.11909e-06
6.11825e-06
6.11739e-06
6.11653e-06
6.11573e-06
6.115e-06
6.09831e-06
6.09974e-06
6.10083e-06
6.10172e-06
6.10249e-06
6.1032e-06
6.1039e-06
6.10463e-06
6.10544e-06
6.10635e-06
6.10739e-06
6.10856e-06
6.10983e-06
6.11117e-06
6.11252e-06
6.11383e-06
6.11503e-06
6.11608e-06
6.11693e-06
6.11757e-06
6.11803e-06
6.11832e-06
6.11852e-06
6.11866e-06
6.11879e-06
6.11895e-06
6.11912e-06
6.11931e-06
6.11949e-06
6.11963e-06
6.11969e-06
6.11965e-06
6.11949e-06
6.11921e-06
6.11881e-06
6.1183e-06
6.11771e-06
6.11705e-06
6.11637e-06
6.1157e-06
6.11509e-06
6.09355e-06
6.09473e-06
6.09571e-06
6.09659e-06
6.09741e-06
6.09822e-06
6.09901e-06
6.0998e-06
6.10062e-06
6.10148e-06
6.10241e-06
6.10343e-06
6.10455e-06
6.10574e-06
6.107e-06
6.10826e-06
6.10951e-06
6.11068e-06
6.11174e-06
6.11264e-06
6.11337e-06
6.11393e-06
6.11435e-06
6.11467e-06
6.11494e-06
6.11519e-06
6.11545e-06
6.11572e-06
6.11599e-06
6.11625e-06
6.11647e-06
6.11663e-06
6.11671e-06
6.11668e-06
6.11655e-06
6.11631e-06
6.11597e-06
6.11554e-06
6.11506e-06
6.11453e-06
6.11409e-06
6.08836e-06
6.08922e-06
6.08996e-06
6.0907e-06
6.09149e-06
6.0923e-06
6.09313e-06
6.09395e-06
6.09477e-06
6.09559e-06
6.09644e-06
6.09734e-06
6.0983e-06
6.09933e-06
6.10045e-06
6.10161e-06
6.1028e-06
6.10396e-06
6.10507e-06
6.10607e-06
6.10695e-06
6.10767e-06
6.10824e-06
6.10869e-06
6.10905e-06
6.10936e-06
6.10965e-06
6.10994e-06
6.11024e-06
6.11054e-06
6.11084e-06
6.11111e-06
6.11134e-06
6.1115e-06
6.11158e-06
6.11158e-06
6.11148e-06
6.1113e-06
6.11105e-06
6.11074e-06
6.1105e-06
6.08283e-06
6.08334e-06
6.0838e-06
6.08435e-06
6.08499e-06
6.08569e-06
6.08642e-06
6.08715e-06
6.08787e-06
6.08858e-06
6.0893e-06
6.09005e-06
6.09084e-06
6.09167e-06
6.09252e-06
6.0934e-06
6.09435e-06
6.09536e-06
6.09641e-06
6.09747e-06
6.09847e-06
6.09941e-06
6.10025e-06
6.10098e-06
6.10163e-06
6.1022e-06
6.10273e-06
6.10323e-06
6.10372e-06
6.10421e-06
6.10468e-06
6.10514e-06
6.10556e-06
6.10594e-06
6.10626e-06
6.1065e-06
6.10667e-06
6.10675e-06
6.10677e-06
6.10667e-06
6.10671e-06
6.07704e-06
6.07725e-06
6.07748e-06
6.07781e-06
6.07823e-06
6.0787e-06
6.07918e-06
6.07965e-06
6.08008e-06
6.08049e-06
6.08088e-06
6.0813e-06
6.08176e-06
6.0824e-06
6.0833e-06
6.08442e-06
6.08556e-06
6.08666e-06
6.08769e-06
6.08864e-06
6.08951e-06
6.09029e-06
6.09097e-06
6.09155e-06
6.09205e-06
6.09248e-06
6.09285e-06
6.0932e-06
6.09354e-06
6.09389e-06
6.09425e-06
6.09463e-06
6.09501e-06
6.09538e-06
6.09573e-06
6.09605e-06
6.09632e-06
6.09653e-06
6.09669e-06
6.09679e-06
6.09689e-06
6.07089e-06
6.07093e-06
6.07099e-06
6.07111e-06
6.07127e-06
6.07145e-06
6.07163e-06
6.07179e-06
6.07189e-06
6.0719e-06
6.07179e-06
6.07155e-06
6.07094e-06
6.07077e-06
6.07118e-06
6.07211e-06
6.07331e-06
6.07463e-06
6.07597e-06
6.07726e-06
6.07845e-06
6.07952e-06
6.08044e-06
6.08123e-06
6.08187e-06
6.08237e-06
6.08275e-06
6.08302e-06
6.08319e-06
6.08325e-06
6.08324e-06
6.08329e-06
6.08341e-06
6.08361e-06
6.08387e-06
6.08417e-06
6.08452e-06
6.08488e-06
6.08528e-06
6.0856e-06
6.08608e-06
0.00155284
0.00117921
0.00039106
8.38322e-07
8.2918e-09
2.04902e-07
3.32405e-06
5.95124e-06
6.53403e-06
6.80984e-06
7.03264e-06
7.03546e-06
6.81738e-06
6.55438e-06
6.37285e-06
6.29214e-06
6.27826e-06
6.29497e-06
6.31838e-06
6.33513e-06
6.34276e-06
6.34035e-06
6.32946e-06
6.31574e-06
6.30549e-06
6.29708e-06
6.28834e-06
6.2839e-06
6.28316e-06
6.28313e-06
6.28216e-06
6.28207e-06
6.28377e-06
6.28566e-06
6.28794e-06
6.29087e-06
6.29377e-06
6.29662e-06
6.29962e-06
6.303e-06
6.30653e-06
6.30982e-06
6.31288e-06
6.31553e-06
6.31717e-06
6.31745e-06
6.31602e-06
6.31256e-06
6.30705e-06
6.29964e-06
6.29041e-06
6.2796e-06
6.26753e-06
6.25461e-06
6.24122e-06
6.22817e-06
6.21645e-06
6.20719e-06
6.20087e-06
6.19616e-06
6.19231e-06
6.18887e-06
6.1855e-06
6.18209e-06
6.1786e-06
6.17501e-06
6.17136e-06
6.16772e-06
6.16417e-06
6.16079e-06
6.15757e-06
6.15456e-06
6.15175e-06
6.14736e-06
0.00357573
0.00300078
0.00152231
0.000345375
4.52825e-11
7.97214e-10
6.59929e-10
1.78603e-06
7.02555e-06
8.1363e-06
7.53111e-06
7.01297e-06
6.80346e-06
6.72095e-06
6.60411e-06
6.45666e-06
6.34684e-06
6.30879e-06
6.32257e-06
6.35033e-06
6.36858e-06
6.3692e-06
6.35551e-06
6.33642e-06
6.32025e-06
6.30705e-06
6.29609e-06
6.29108e-06
6.29146e-06
6.29304e-06
6.29367e-06
6.29543e-06
6.2986e-06
6.30217e-06
6.30586e-06
6.30968e-06
6.31314e-06
6.31633e-06
6.31959e-06
6.32309e-06
6.32638e-06
6.32918e-06
6.33148e-06
6.33303e-06
6.33326e-06
6.33189e-06
6.32857e-06
6.32308e-06
6.31551e-06
6.30602e-06
6.29476e-06
6.28204e-06
6.26831e-06
6.25406e-06
6.23988e-06
6.22671e-06
6.21561e-06
6.20752e-06
6.2022e-06
6.1982e-06
6.19484e-06
6.19172e-06
6.18854e-06
6.18523e-06
6.18177e-06
6.17817e-06
6.17448e-06
6.17078e-06
6.16714e-06
6.16367e-06
6.16033e-06
6.1572e-06
6.15429e-06
6.14972e-06
0.00567744
0.00515351
0.00344666
0.00154767
0.000374635
9.82314e-05
1.48386e-10
7.41485e-09
9.14803e-08
2.93997e-06
8.36049e-06
9.20932e-06
7.92514e-06
6.8873e-06
6.48644e-06
6.45111e-06
6.46569e-06
6.42505e-06
6.37204e-06
6.35597e-06
6.37401e-06
6.39374e-06
6.3936e-06
6.37477e-06
6.3492e-06
6.32508e-06
6.30715e-06
6.29806e-06
6.29721e-06
6.29985e-06
6.30297e-06
6.30762e-06
6.31322e-06
6.31934e-06
6.32525e-06
6.33049e-06
6.33478e-06
6.33834e-06
6.34167e-06
6.34499e-06
6.34773e-06
6.34969e-06
6.35087e-06
6.35094e-06
6.34947e-06
6.34618e-06
6.34075e-06
6.33305e-06
6.32326e-06
6.31158e-06
6.29824e-06
6.28366e-06
6.26842e-06
6.25313e-06
6.23852e-06
6.2256e-06
6.21536e-06
6.20847e-06
6.20402e-06
6.20063e-06
6.19768e-06
6.1948e-06
6.19175e-06
6.1885e-06
6.18504e-06
6.1814e-06
6.17764e-06
6.17385e-06
6.1701e-06
6.16651e-06
6.16305e-06
6.1598e-06
6.15679e-06
6.15202e-06
0.00725797
0.00705341
0.00561134
0.00354946
0.00173317
0.000540983
2.00476e-08
3.23714e-05
2.50771e-10
1.24101e-08
2.1995e-07
3.67312e-06
9.15923e-06
1.03217e-05
8.5005e-06
6.89982e-06
6.23911e-06
6.21791e-06
6.36462e-06
6.4391e-06
6.43553e-06
6.41636e-06
6.40897e-06
6.40466e-06
6.3901e-06
6.36417e-06
6.33683e-06
6.31639e-06
6.30698e-06
6.30614e-06
6.31028e-06
6.31794e-06
6.32674e-06
6.33603e-06
6.34474e-06
6.35202e-06
6.35771e-06
6.36203e-06
6.36554e-06
6.36853e-06
6.37052e-06
6.37133e-06
6.371e-06
6.36922e-06
6.36568e-06
6.36017e-06
6.3524e-06
6.34235e-06
6.33024e-06
6.31632e-06
6.30093e-06
6.28462e-06
6.2681e-06
6.25209e-06
6.23739e-06
6.22496e-06
6.21569e-06
6.20994e-06
6.20626e-06
6.20338e-06
6.20075e-06
6.19806e-06
6.19509e-06
6.19186e-06
6.18837e-06
6.18466e-06
6.18081e-06
6.1769e-06
6.17302e-06
6.1693e-06
6.1657e-06
6.1623e-06
6.15919e-06
6.15421e-06
0.00816484
0.00849942
0.00756606
0.00582018
0.00393212
0.00229922
0.00107382
0.000355995
0.000201812
3.70536e-05
1.59058e-08
2.40429e-09
1.55604e-07
2.55795e-06
7.80986e-06
1.05064e-05
9.17509e-06
7.17077e-06
6.15181e-06
6.0469e-06
6.27545e-06
6.45424e-06
6.4937e-06
6.4603e-06
6.41951e-06
6.3909e-06
6.37096e-06
6.35258e-06
6.3365e-06
6.32602e-06
6.32344e-06
6.32887e-06
6.3389e-06
6.35127e-06
6.36342e-06
6.37352e-06
6.38121e-06
6.38673e-06
6.39066e-06
6.39337e-06
6.39454e-06
6.39404e-06
6.39192e-06
6.38794e-06
6.38197e-06
6.3739e-06
6.36354e-06
6.35098e-06
6.33647e-06
6.32032e-06
6.30299e-06
6.28515e-06
6.26762e-06
6.2512e-06
6.23668e-06
6.22489e-06
6.21658e-06
6.21184e-06
6.20882e-06
6.20638e-06
6.20401e-06
6.20143e-06
6.19851e-06
6.19526e-06
6.19171e-06
6.18791e-06
6.18395e-06
6.17991e-06
6.17589e-06
6.17201e-06
6.16826e-06
6.16471e-06
6.16149e-06
6.15628e-06
0.00838924
0.00930066
0.00906638
0.00788996
0.00634362
0.00477271
0.00332256
0.00205987
0.00104068
0.000385149
1.04241e-06
0.000101007
8.94853e-06
5.80875e-10
1.03726e-09
7.39877e-07
5.18591e-06
9.73167e-06
9.80138e-06
7.74618e-06
6.32121e-06
5.99154e-06
6.18919e-06
6.43076e-06
6.5193e-06
6.48572e-06
6.42259e-06
6.37859e-06
6.35866e-06
6.35229e-06
6.35168e-06
6.35469e-06
6.36053e-06
6.37001e-06
6.38184e-06
6.39363e-06
6.40381e-06
6.41147e-06
6.41652e-06
6.41921e-06
6.41955e-06
6.41765e-06
6.41355e-06
6.40712e-06
6.39842e-06
6.38748e-06
6.37426e-06
6.35902e-06
6.34208e-06
6.32377e-06
6.30465e-06
6.28551e-06
6.26723e-06
6.25066e-06
6.23653e-06
6.22544e-06
6.218e-06
6.21406e-06
6.21161e-06
6.20955e-06
6.20738e-06
6.20488e-06
6.20196e-06
6.19867e-06
6.19503e-06
6.19113e-06
6.18704e-06
6.18285e-06
6.17868e-06
6.17464e-06
6.17072e-06
6.16701e-06
6.16368e-06
6.15822e-06
0.00787026
0.00921519
0.00982857
0.0094476
0.00846567
0.00728167
0.00604174
0.00477719
0.00351092
0.00233244
0.00135867
0.000648971
0.000216385
0.000220345
7.77463e-05
2.35886e-10
7.68854e-08
1.1709e-08
2.1528e-06
7.95068e-06
1.00588e-05
8.56934e-06
6.79753e-06
6.08524e-06
6.11261e-06
6.35649e-06
6.50788e-06
6.51273e-06
6.44852e-06
6.39045e-06
6.36573e-06
6.36846e-06
6.38269e-06
6.39844e-06
6.4115e-06
6.42132e-06
6.4293e-06
6.4362e-06
6.44164e-06
6.4448e-06
6.44491e-06
6.44188e-06
6.43582e-06
6.4268e-06
6.41514e-06
6.40106e-06
6.38476e-06
6.36668e-06
6.34726e-06
6.32689e-06
6.30618e-06
6.28596e-06
6.26718e-06
6.25066e-06
6.237e-06
6.2266e-06
6.21992e-06
6.21654e-06
6.21456e-06
6.21279e-06
6.21079e-06
6.20833e-06
6.20539e-06
6.20203e-06
6.19829e-06
6.19426e-06
6.19003e-06
6.1857e-06
6.18138e-06
6.17717e-06
6.17309e-06
6.1692e-06
6.16575e-06
6.16003e-06
0.00678228
0.00817452
0.00944832
0.0100641
0.00989841
0.00927723
0.00848425
0.00756524
0.00650762
0.00535404
0.00419363
0.00308111
0.00207904
0.00119452
0.000563318
0.000114275
6.18532e-07
1.9778e-07
1.80735e-10
3.33234e-08
4.45518e-07
4.61428e-06
9.14508e-06
9.15476e-06
7.38615e-06
6.24606e-06
5.99213e-06
6.18408e-06
6.41894e-06