/*--------------------------------*- C++ -*----------------------------------*\
| =========                 |                                                 |
| \\      /  F ield         | OpenFOAM: The Open Source CFD Toolbox           |
|  \\    /   O peration     | Version:  2312                                  |
|   \\  /    A nd           | Website:  www.openfoam.com                      |
|    \\/     M anipulation  |                                                 |
\*---------------------------------------------------------------------------*/
FoamFile
{
    version     2.0;
    format      ascii;
    arch        "LSB;label=32;scalar=64";
    class       volScalarField;
    location    "50";
    object      nuTilda;
}
// * * * * * * * * * * * * * * * * * * * * * * * * * * * * * * * * * * * * * //

dimensions      [0 2 -1 0 0 0 0];

internalField   nonuniform List<scalar> 
11040
(
9.58917e-05
7.82955e-05
5.4246e-05
0.000151755
0.000193512
0.000272099
0.000374034
0.000447876
0.000228721
0.000229443
0.00028107
0.000302053
0.000255695
0.000189708
0.000187345
0.000207351
0.000220472
0.000360684
0.000465403
0.000545783
0.000613628
0.000672059
0.000721923
0.000764542
0.000798052
0.000821875
0.000834543
0.000837641
0.000829975
0.000812352
0.000788443
0.0007588
0.000724638
0.00068567
0.000643694
0.000600121
0.000556427
0.000511324
0.000458957
0.000392904
0.000411824
5.95456e-05
8.90511e-05
0.000140567
0.000603198
0.000803781
0.00104188
0.00156183
0.00143514
0.00127033
0.00114723
0.00142799
0.0015125
0.00126728
0.00102329
0.00103606
0.00114196
0.00106696
0.00101357
0.000959048
0.000893553
0.000832503
0.000789369
0.00075914
0.000732283
0.000702654
0.000669673
0.000635439
0.000600455
0.00057293
0.000547119
0.000525928
0.000516021
0.000514973
0.000518833
0.000532063
0.00056382
0.000625566
0.00073652
0.000929791
0.00126933
0.00186233
3.89209e-05
6.00334e-05
8.60986e-05
0.00049969
0.0011613
0.00147102
0.00205138
0.0019229
0.00193103
0.00221452
0.00284493
0.00312835
0.0027494
0.00207241
0.00184555
0.00177066
0.00157166
0.00143482
0.00130769
0.00116919
0.00102329
0.000926041
0.000882875
0.000870154
0.000878907
0.000900934
0.000929361
0.00096155
0.000990497
0.00101648
0.00103418
0.00104686
0.00105374
0.0010637
0.00108621
0.00114062
0.00125456
0.00147252
0.00186264
0.00254427
0.00367303
3.8323e-05
4.53546e-05
3.33899e-05
0.000224315
0.000816756
0.0015883
0.0021844
0.00229621
0.00253472
0.00322391
0.00428881
0.00472943
0.00399272
0.00296418
0.00255117
0.00232449
0.00213229
0.00208054
0.0020158
0.00198523
0.00187025
0.00174074
0.00165463
0.00162964
0.00164875
0.00169023
0.00173671
0.00178175
0.00181553
0.00184164
0.00185289
0.00185173
0.00183675
0.00181772
0.00180795
0.00183744
0.00194927
0.00221939
0.00276849
0.0037909
0.00549168
3.95192e-05
4.33474e-05
2.68004e-05
5.21175e-05
0.00033296
0.0010023
0.00210388
0.0026356
0.00329701
0.0041396
0.0051586
0.00578106
0.00498732
0.00377405
0.00325099
0.00306356
0.00313141
0.00340594
0.00363388
0.00364289
0.00346748
0.00323535
0.00304713
0.00294965
0.00292532
0.00294012
0.00296587
0.00298959
0.00299959
0.00299748
0.00297474
0.00293194
0.00286662
0.00278774
0.00271173
0.0026699
0.00270977
0.00293072
0.00350846
0.0047042
0.00640377
4.00056e-05
4.13742e-05
3.84894e-05
1.69647e-05
5.71475e-05
0.000370269
0.00142466
0.00312065
0.0044436
0.0052715
0.00594979
0.00650537
0.00583741
0.00459948
0.00413756
0.00429588
0.00491622
0.00576274
0.00620199
0.00622954
0.00599118
0.00565239
0.00533799
0.00512532
0.00500484
0.0049342
0.00487748
0.00481672
0.00474022
0.00464931
0.00453624
0.00439912
0.00423673
0.00405712
0.00387411
0.00371333
0.00361757
0.00365646
0.00400106
0.00495195
0.00650998
4.02735e-05
3.98626e-05
4.23029e-05
3.3208e-05
5.7584e-06
1.78226e-05
0.000517062
0.00230516
0.00493998
0.00672536
0.00733592
0.00717199
0.00672091
0.00569688
0.00546743
0.00621009
0.00771902
0.0088713
0.00959705
0.00988081
0.00975126
0.00936906
0.00894088
0.00857831
0.00827729
0.00800523
0.00773957
0.00746983
0.00718891
0.00690495
0.00661423
0.00631705
0.00601422
0.00571054
0.00540892
0.0051184
0.0048456
0.00460445
0.00454602
0.00493434
0.00607493
4.01732e-05
4.0176e-05
4.02473e-05
4.27662e-05
2.59514e-05
8.06393e-06
0.000172103
0.000849236
0.00351827
0.00696539
0.00865359
0.00853662
0.00781518
0.0072732
0.00739448
0.00914713
0.0109128
0.0123931
0.0135286
0.0142269
0.0144515
0.0142826
0.0138846
0.0134139
0.0129062
0.0123697
0.0118094
0.0112289
0.0106296
0.0100352
0.00945158
0.0088845
0.00833791
0.00781548
0.00731726
0.00684504
0.00639399
0.00596283
0.00557477
0.00532825
0.00558742
4.01575e-05
4.02527e-05
3.98987e-05
4.09986e-05
4.28396e-05
2.04827e-05
6.08009e-06
2.01047e-05
0.00123832
0.00440311
0.00807134
0.00980999
0.00952612
0.00918292
0.010137
0.0120975
0.0141474
0.0161053
0.0178223
0.0191477
0.0199761
0.0202838
0.0201587
0.019764
0.0191762
0.01844
0.0175882
0.0166469
0.0156434
0.0146194
0.0136069
0.0126274
0.011696
0.0108203
0.0100009
0.00923623
0.00851234
0.00780493
0.00709756
0.00643202
0.00593456
4.01651e-05
4.01457e-05
4.02423e-05
3.98152e-05
4.1857e-05
4.21548e-05
9.12555e-06
1.19164e-05
6.31455e-05
0.0013588
0.00415809
0.00733286
0.0101605
0.0114891
0.0126098
0.0146059
0.0170295
0.0196129
0.022107
0.0243078
0.0260449
0.0271717
0.0276737
0.0276895
0.0273038
0.0265762
0.0255592
0.0243038
0.0228661
0.021321
0.0197417
0.0181836
0.0166859
0.015271
0.0139478
0.0127215
0.0115781
0.0104825
0.00939971
0.00833361
0.00732015
4.01467e-05
4.01536e-05
4.01587e-05
4.01493e-05
3.98493e-05
4.27358e-05
3.9651e-05
9.23342e-06
1.63713e-05
6.40702e-05
0.00100494
0.00286214
0.00533333
0.00839741
0.0124477
0.0158995
0.0189664
0.0223145
0.0257612
0.0290915
0.0320781
0.0344283
0.035997
0.0368679
0.0370984
0.0367383
0.0358439
0.034478
0.0327191
0.0306704
0.0284556
0.0261814
0.0239316
0.0217605
0.0197002
0.0177781
0.0159956
0.0143195
0.0127113
0.0111754
0.00972358
4.01366e-05
4.01432e-05
4.0137e-05
4.01719e-05
4.00588e-05
4.00451e-05
4.31562e-05
3.64654e-05
8.7417e-06
9.48824e-06
9.50644e-06
0.000484669
0.00147765
0.00302091
0.00569827
0.0105315
0.0169687
0.022771
0.0277784
0.0325324
0.0370923
0.0410729
0.0441847
0.0464293
0.0478004
0.0483136
0.0480061
0.0469274
0.0451577
0.0428068
0.0400403
0.0370189
0.0338921
0.0307687
0.027727
0.0248386
0.0221434
0.0196286
0.0172647
0.0150705
0.0130584
4.01289e-05
4.01313e-05
4.01333e-05
4.01282e-05
4.01662e-05
3.99872e-05
4.03625e-05
4.26493e-05
3.56803e-05
6.87308e-06
3.98241e-06
7.62437e-05
0.000150998
0.00054702
0.00129207
0.0030856
0.00758992
0.0155421
0.0246578
0.032657
0.0395515
0.0455713
0.050647
0.0547733
0.0578446
0.059826
0.0607051
0.0604928
0.0592285
0.0570047
0.0539928
0.0503839
0.0463941
0.042214
0.0379974
0.0338917
0.0300091
0.0263846
0.0230161
0.0199504
0.017197
4.01225e-05
4.01246e-05
4.01258e-05
4.01264e-05
4.01272e-05
4.01388e-05
4.00087e-05
4.04855e-05
4.17558e-05
3.74216e-05
2.02521e-05
5.78197e-06
1.80764e-05
4.06237e-06
8.69185e-05
0.000273329
0.00119292
0.00471371
0.012575
0.0238041
0.0353484
0.0451096
0.0529689
0.0594416
0.0646556
0.0686154
0.0712759
0.0725645
0.0724521
0.0709613
0.0681988
0.0643686
0.0597123
0.0545121
0.0490344
0.043544
0.0382665
0.0333271
0.028784
0.0247185
0.0211397
4.01168e-05
4.01186e-05
4.01196e-05
4.01213e-05
4.01221e-05
4.01278e-05
4.01189e-05
4.0071e-05
4.03802e-05
4.11446e-05
3.95898e-05
2.97704e-05
1.50686e-05
5.43219e-06
1.11142e-05
2.8773e-05
0.000151612
0.000159738
0.00223219
0.00855108
0.0195689
0.0327022
0.0450261
0.0554338
0.0637861
0.0702715
0.0750393
0.0781383
0.0795769
0.0793471
0.077382
0.0737798
0.0687897
0.0627975
0.0562221
0.0494869
0.0429486
0.0368526
0.03132
0.0264575
0.0222846
4.01118e-05
4.01134e-05
4.01146e-05
4.01163e-05
4.01183e-05
4.012e-05
4.01245e-05
4.0116e-05
4.0106e-05
4.02327e-05
4.07083e-05
4.07719e-05
3.74878e-05
3.06833e-05
2.49311e-05
1.16188e-06
1.82782e-06
1.60567e-05
0.000335156
0.000695366
0.00425951
0.0118539
0.0224025
0.0341309
0.0453506
0.0550136
0.0626482
0.0681209
0.0714637
0.0727731
0.0720532
0.069119
0.0643356
0.0583475
0.051731
0.0449929
0.03852
0.0325784
0.0272798
0.0227045
0.01887
4.01076e-05
4.01088e-05
4.01097e-05
4.01113e-05
4.01133e-05
4.01151e-05
4.01173e-05
4.01198e-05
4.01176e-05
4.01154e-05
4.0144e-05
4.04089e-05
4.078e-05
4.00179e-05
3.92701e-05
3.69115e-05
1.94976e-05
5.99866e-06
0
6.68394e-05
8.32458e-07
0.00103309
0.0039131
0.00914261
0.0159253
0.0232521
0.0301443
0.0358806
0.0400383
0.042432
0.0430517
0.0421115
0.039737
0.0362692
0.0321611
0.0278394
0.02363
0.0197657
0.0163385
0.0134054
0.0109882
4.01041e-05
4.01047e-05
4.01053e-05
4.01066e-05
4.01083e-05
4.01099e-05
4.01112e-05
4.01131e-05
4.01146e-05
4.0117e-05
4.01156e-05
4.01135e-05
4.02425e-05
4.04144e-05
4.02322e-05
4.12652e-05
4.10748e-05
3.31879e-05
8.76989e-06
1.21118e-06
7.5861e-08
9.17044e-05
0.000364992
0.000141008
0.00107623
0.00288148
0.00518837
0.00756697
0.00961097
0.0110418
0.0117183
0.0116297
0.010981
0.00997155
0.008748
0.00745396
0.00619835
0.00506124
0.00406916
0.00323702
0.00256737
4.01014e-05
4.01017e-05
4.0102e-05
4.0103e-05
4.01042e-05
4.01052e-05
4.01061e-05
4.01071e-05
4.01086e-05
4.01102e-05
4.01146e-05
4.01138e-05
4.01117e-05
4.01626e-05
4.01468e-05
4.00995e-05
4.11167e-05
4.18666e-05
3.88612e-05
1.42219e-05
5.1554e-06
5.86369e-07
0
1.1758e-05
8.8065e-05
0.00023138
0.000408858
0.000609418
0.000137013
0.000320429
0.000452061
0.000534125
0.000541971
0.000495422
0.000417406
0.000326343
0.000240034
0.000167387
0.000110085
6.9025e-05
3.24396e-05
4.00998e-05
4.00995e-05
4.00994e-05
4.01e-05
4.01006e-05
4.01011e-05
4.01016e-05
4.01021e-05
4.01031e-05
4.01046e-05
4.01069e-05
4.01111e-05
4.01135e-05
4.01138e-05
4.01373e-05
4.00703e-05
4.0108e-05
4.04125e-05
4.19712e-05
3.99096e-05
3.2963e-05
7.05935e-06
3.72305e-06
1.77385e-06
5.19804e-07
0
0
0
1.01518e-05
2.32768e-05
3.21993e-05
3.73059e-05
3.71165e-05
3.33613e-05
2.75861e-05
2.11466e-05
1.52277e-05
1.04911e-05
6.75377e-06
4.16013e-06
1.91212e-06
4.00987e-05
4.00977e-05
4.0097e-05
4.0097e-05
4.00972e-05
4.00972e-05
4.00973e-05
4.00976e-05
4.00982e-05
4.00994e-05
4.01012e-05
4.01039e-05
4.01078e-05
4.01111e-05
4.01171e-05
4.01228e-05
4.00975e-05
4.00575e-05
4.02274e-05
4.1048e-05
4.19158e-05
3.91778e-05
3.18773e-05
2.26013e-05
6.76604e-06
3.70563e-06
2.1661e-06
1.81368e-06
1.5074e-06
1.26931e-06
1.09024e-06
9.68321e-07
8.96053e-07
8.62299e-07
8.53021e-07
8.60343e-07
8.77687e-07
9.06633e-07
9.30919e-07
9.59364e-07
9.81979e-07
4.00978e-05
4.00958e-05
4.00945e-05
4.00941e-05
4.00939e-05
4.00937e-05
4.00935e-05
4.00936e-05
4.00941e-05
4.0095e-05
4.00965e-05
4.00987e-05
4.01014e-05
4.01052e-05
4.01087e-05
4.01146e-05
4.01174e-05
4.01226e-05
4.00624e-05
4.01225e-05
4.04588e-05
4.14252e-05
4.16245e-05
4.0741e-05
3.82432e-05
3.44649e-05
3.0017e-05
2.56964e-05
2.18304e-05
1.87855e-05
1.64854e-05
1.49571e-05
1.4138e-05
1.38605e-05
1.39908e-05
1.44102e-05
1.50314e-05
1.57432e-05
1.65285e-05
1.73578e-05
1.81789e-05
4.00967e-05
4.00939e-05
4.00922e-05
4.00916e-05
4.00912e-05
4.00909e-05
4.00906e-05
4.00906e-05
4.00909e-05
4.00917e-05
4.00928e-05
4.00946e-05
4.00969e-05
4.00997e-05
4.01032e-05
4.01069e-05
4.01104e-05
4.01189e-05
4.01205e-05
4.01002e-05
4.00601e-05
4.01974e-05
4.05525e-05
4.10122e-05
4.14969e-05
4.17104e-05
4.1569e-05
4.10994e-05
4.04141e-05
3.96457e-05
3.88912e-05
3.8221e-05
3.76781e-05
3.72671e-05
3.69861e-05
3.68243e-05
3.67724e-05
3.67884e-05
3.68721e-05
3.70016e-05
3.71711e-05
4.00953e-05
4.00922e-05
4.00904e-05
4.00898e-05
4.00894e-05
4.00891e-05
4.00889e-05
4.00888e-05
4.0089e-05
4.00895e-05
4.00903e-05
4.00917e-05
4.00935e-05
4.00958e-05
4.00986e-05
4.01019e-05
4.01053e-05
4.01088e-05
4.01157e-05
4.01214e-05
4.01129e-05
4.00899e-05
4.00934e-05
4.0156e-05
4.02994e-05
4.05127e-05
4.07674e-05
4.10262e-05
4.12563e-05
4.14422e-05
4.1581e-05
4.16764e-05
4.17372e-05
4.17729e-05
4.17909e-05
4.17972e-05
4.17958e-05
4.17893e-05
4.17792e-05
4.1765e-05
4.17506e-05
4.00939e-05
4.00911e-05
4.00896e-05
4.00891e-05
4.00889e-05
4.00886e-05
4.00883e-05
4.00882e-05
4.00882e-05
4.00885e-05
4.0089e-05
4.00899e-05
4.00912e-05
4.0093e-05
4.00953e-05
4.00979e-05
4.01009e-05
4.01041e-05
4.01078e-05
4.01129e-05
4.01188e-05
4.01201e-05
4.01142e-05
4.01051e-05
4.00996e-05
4.01062e-05
4.01313e-05
4.01767e-05
4.02392e-05
4.03127e-05
4.03907e-05
4.04678e-05
4.05395e-05
4.06041e-05
4.06603e-05
4.07073e-05
4.07446e-05
4.07752e-05
4.07982e-05
4.08151e-05
4.08237e-05
4.00928e-05
4.00913e-05
4.00901e-05
4.00898e-05
4.00896e-05
4.00893e-05
4.00889e-05
4.00886e-05
4.00885e-05
4.00885e-05
4.00887e-05
4.00891e-05
4.009e-05
4.00912e-05
4.00929e-05
4.00949e-05
4.00974e-05
4.01002e-05
4.01032e-05
4.01066e-05
4.01108e-05
4.01157e-05
4.01202e-05
4.01232e-05
4.01239e-05
4.01223e-05
4.01193e-05
4.01166e-05
4.01155e-05
4.0117e-05
4.01213e-05
4.01285e-05
4.01379e-05
4.0149e-05
4.01612e-05
4.0174e-05
4.0187e-05
4.02e-05
4.02129e-05
4.02254e-05
4.02371e-05
4.00922e-05
4.00924e-05
4.00918e-05
4.00915e-05
4.00912e-05
4.00909e-05
4.00905e-05
4.009e-05
4.00896e-05
4.00893e-05
4.00892e-05
4.00892e-05
4.00896e-05
4.00903e-05
4.00914e-05
4.00929e-05
4.00948e-05
4.0097e-05
4.00995e-05
4.01024e-05
4.01055e-05
4.0109e-05
4.0113e-05
4.01174e-05
4.01219e-05
4.01262e-05
4.01301e-05
4.01335e-05
4.01363e-05
4.01387e-05
4.0141e-05
4.01434e-05
4.01462e-05
4.01493e-05
4.0153e-05
4.01572e-05
4.01621e-05
4.01674e-05
4.01733e-05
4.01794e-05
4.01868e-05
4.00923e-05
4.00939e-05
4.00942e-05
4.0094e-05
4.00938e-05
4.00935e-05
4.00929e-05
4.00923e-05
4.00916e-05
4.0091e-05
4.00905e-05
4.00902e-05
4.00901e-05
4.00904e-05
4.0091e-05
4.00919e-05
4.00932e-05
4.00948e-05
4.00968e-05
4.0099e-05
4.01016e-05
4.01044e-05
4.01074e-05
4.01107e-05
4.01142e-05
4.0118e-05
4.0122e-05
4.01262e-05
4.01304e-05
4.01348e-05
4.01392e-05
4.01437e-05
4.01482e-05
4.01527e-05
4.01574e-05
4.01621e-05
4.0167e-05
4.0172e-05
4.01772e-05
4.01822e-05
4.01881e-05
4.00929e-05
4.00952e-05
4.00962e-05
4.00966e-05
4.00968e-05
4.00966e-05
4.0096e-05
4.00952e-05
4.00942e-05
4.00933e-05
4.00925e-05
4.00919e-05
4.00915e-05
4.00913e-05
4.00914e-05
4.00918e-05
4.00926e-05
4.00936e-05
4.0095e-05
4.00967e-05
4.00986e-05
4.01008e-05
4.01032e-05
4.01058e-05
4.01085e-05
4.01114e-05
4.01144e-05
4.01175e-05
4.01208e-05
4.01242e-05
4.01278e-05
4.01315e-05
4.01353e-05
4.01393e-05
4.01434e-05
4.01476e-05
4.01519e-05
4.01563e-05
4.01608e-05
4.01652e-05
4.01701e-05
4.00935e-05
4.0096e-05
4.00974e-05
4.00984e-05
4.00991e-05
4.00992e-05
4.00987e-05
4.00979e-05
4.00969e-05
4.00959e-05
4.0095e-05
4.00941e-05
4.00935e-05
4.0093e-05
4.00927e-05
4.00927e-05
4.00929e-05
4.00934e-05
4.00942e-05
4.00953e-05
4.00967e-05
4.00983e-05
4.01001e-05
4.01021e-05
4.01042e-05
4.01064e-05
4.01086e-05
4.0111e-05
4.01135e-05
4.0116e-05
4.01187e-05
4.01215e-05
4.01244e-05
4.01275e-05
4.01306e-05
4.01339e-05
4.01373e-05
4.01408e-05
4.01445e-05
4.0148e-05
4.01521e-05
4.00936e-05
4.00962e-05
4.00979e-05
4.00994e-05
4.01006e-05
4.01012e-05
4.0101e-05
4.01003e-05
4.00993e-05
4.00983e-05
4.00974e-05
4.00966e-05
4.00958e-05
4.00951e-05
4.00945e-05
4.00941e-05
4.00939e-05
4.00939e-05
4.00942e-05
4.00948e-05
4.00955e-05
4.00966e-05
4.00978e-05
4.00993e-05
4.01008e-05
4.01024e-05
4.01041e-05
4.01059e-05
4.01077e-05
4.01097e-05
4.01117e-05
4.01137e-05
4.01159e-05
4.01182e-05
4.01206e-05
4.01231e-05
4.01258e-05
4.01285e-05
4.01314e-05
4.01342e-05
4.01375e-05
4.00934e-05
4.00958e-05
4.00976e-05
4.00996e-05
4.01013e-05
4.01024e-05
4.01027e-05
4.01024e-05
4.01016e-05
4.01006e-05
4.00996e-05
4.00987e-05
4.00981e-05
4.00974e-05
4.00968e-05
4.00962e-05
4.00956e-05
4.00952e-05
4.0095e-05
4.0095e-05
4.00952e-05
4.00957e-05
4.00964e-05
4.00973e-05
4.00983e-05
4.00994e-05
4.01006e-05
4.01018e-05
4.01031e-05
4.01045e-05
4.0106e-05
4.01075e-05
4.0109e-05
4.01107e-05
4.01125e-05
4.01144e-05
4.01163e-05
4.01184e-05
4.01206e-05
4.01228e-05
4.01254e-05
4.00928e-05
4.00949e-05
4.00967e-05
4.00988e-05
4.01011e-05
4.01028e-05
4.01037e-05
4.01039e-05
4.01034e-05
4.01027e-05
4.01017e-05
4.01009e-05
4.01001e-05
4.00995e-05
4.0099e-05
4.00983e-05
4.00977e-05
4.0097e-05
4.00964e-05
4.0096e-05
4.00957e-05
4.00957e-05
4.00958e-05
4.00961e-05
4.00966e-05
4.00972e-05
4.00979e-05
4.00987e-05
4.00995e-05
4.01004e-05
4.01014e-05
4.01024e-05
4.01035e-05
4.01046e-05
4.01058e-05
4.01072e-05
4.01086e-05
4.011e-05
4.01116e-05
4.01132e-05
4.01152e-05
4.00918e-05
4.00935e-05
4.0095e-05
4.00972e-05
4.00998e-05
4.01021e-05
4.01037e-05
4.01046e-05
4.01048e-05
4.01044e-05
4.01037e-05
4.01029e-05
4.01021e-05
4.01015e-05
4.01009e-05
4.01004e-05
4.01e-05
4.00993e-05
4.00985e-05
4.00977e-05
4.00971e-05
4.00965e-05
4.00961e-05
4.00959e-05
4.00959e-05
4.00959e-05
4.00961e-05
4.00964e-05
4.00968e-05
4.00973e-05
4.00978e-05
4.00984e-05
4.0099e-05
4.00998e-05
4.01005e-05
4.01014e-05
4.01023e-05
4.01032e-05
4.01043e-05
4.01053e-05
4.01068e-05
4.00906e-05
4.00919e-05
4.0093e-05
4.00949e-05
4.00976e-05
4.01003e-05
4.01026e-05
4.01043e-05
4.01052e-05
4.01055e-05
4.01054e-05
4.01048e-05
4.01042e-05
4.01035e-05
4.01028e-05
4.01023e-05
4.01019e-05
4.01016e-05
4.01011e-05
4.01002e-05
4.00993e-05
4.00983e-05
4.00975e-05
4.00968e-05
4.00962e-05
4.00958e-05
4.00955e-05
4.00953e-05
4.00952e-05
4.00952e-05
4.00953e-05
4.00955e-05
4.00958e-05
4.00961e-05
4.00965e-05
4.00969e-05
4.00974e-05
4.00979e-05
4.00985e-05
4.0099e-05
4.01e-05
4.00889e-05
4.009e-05
4.00906e-05
4.00922e-05
4.00947e-05
4.00976e-05
4.01004e-05
4.01028e-05
4.01045e-05
4.01057e-05
4.01062e-05
4.01062e-05
4.01059e-05
4.01054e-05
4.01047e-05
4.01041e-05
4.01036e-05
4.01033e-05
4.01031e-05
4.01028e-05
4.01022e-05
4.01012e-05
4.01e-05
4.00989e-05
4.00978e-05
4.00968e-05
4.0096e-05
4.00953e-05
4.00947e-05
4.00943e-05
4.0094e-05
4.00937e-05
4.00936e-05
4.00935e-05
4.00935e-05
4.00936e-05
4.00937e-05
4.00938e-05
4.00941e-05
4.00942e-05
4.00948e-05
4.00869e-05
4.00879e-05
4.00882e-05
4.00893e-05
4.00915e-05
4.00942e-05
4.00972e-05
4.01e-05
4.01025e-05
4.01044e-05
4.01058e-05
4.01066e-05
4.01069e-05
4.01067e-05
4.01063e-05
4.01058e-05
4.01053e-05
4.01048e-05
4.01045e-05
4.01044e-05
4.01042e-05
4.01038e-05
4.01031e-05
4.01019e-05
4.01005e-05
4.00992e-05
4.00979e-05
4.00967e-05
4.00956e-05
4.00947e-05
4.00939e-05
4.00932e-05
4.00926e-05
4.00921e-05
4.00917e-05
4.00914e-05
4.00912e-05
4.0091e-05
4.00909e-05
4.00906e-05
4.00909e-05
4.00842e-05
4.00854e-05
4.00857e-05
4.00865e-05
4.00882e-05
4.00905e-05
4.00933e-05
4.00962e-05
4.00991e-05
4.01017e-05
4.01038e-05
4.01054e-05
4.01065e-05
4.0107e-05
4.01071e-05
4.01069e-05
4.01065e-05
4.0106e-05
4.01056e-05
4.01054e-05
4.01053e-05
4.01052e-05
4.0105e-05
4.01045e-05
4.01037e-05
4.01025e-05
4.01009e-05
4.00994e-05
4.00978e-05
4.00964e-05
4.00951e-05
4.00939e-05
4.00929e-05
4.00919e-05
4.00911e-05
4.00904e-05
4.00898e-05
4.00893e-05
4.00888e-05
4.00883e-05
4.00882e-05
4.00809e-05
4.00825e-05
4.0083e-05
4.00837e-05
4.00849e-05
4.00868e-05
4.00891e-05
4.00917e-05
4.00946e-05
4.00974e-05
4.01001e-05
4.01024e-05
4.01043e-05
4.01056e-05
4.01064e-05
4.01067e-05
4.01067e-05
4.01064e-05
4.01061e-05
4.01058e-05
4.01057e-05
4.01056e-05
4.01056e-05
4.01055e-05
4.01052e-05
4.01047e-05
4.01039e-05
4.01027e-05
4.01011e-05
4.00993e-05
4.00975e-05
4.00959e-05
4.00944e-05
4.00929e-05
4.00917e-05
4.00905e-05
4.00895e-05
4.00886e-05
4.00878e-05
4.00869e-05
4.00865e-05
4.00766e-05
4.00788e-05
4.00798e-05
4.00806e-05
4.00816e-05
4.0083e-05
4.00847e-05
4.00869e-05
4.00894e-05
4.00921e-05
4.00949e-05
4.00976e-05
4.01e-05
4.01021e-05
4.01036e-05
4.01047e-05
4.01053e-05
4.01055e-05
4.01054e-05
4.01052e-05
4.01051e-05
4.0105e-05
4.0105e-05
4.0105e-05
4.01051e-05
4.0105e-05
4.01048e-05
4.01042e-05
4.01034e-05
4.01022e-05
4.01007e-05
4.00989e-05
4.0097e-05
4.00951e-05
4.00933e-05
4.00917e-05
4.00902e-05
4.00889e-05
4.00877e-05
4.00866e-05
4.00859e-05
4.00713e-05
4.00739e-05
4.00754e-05
4.00765e-05
4.00776e-05
4.00787e-05
4.008e-05
4.00817e-05
4.00837e-05
4.00861e-05
4.00887e-05
4.00914e-05
4.00941e-05
4.00966e-05
4.00987e-05
4.01005e-05
4.01018e-05
4.01026e-05
4.0103e-05
4.01032e-05
4.01032e-05
4.01031e-05
4.01031e-05
4.01032e-05
4.01033e-05
4.01035e-05
4.01036e-05
4.01035e-05
4.01032e-05
4.01027e-05
4.01019e-05
4.01007e-05
4.00993e-05
4.00977e-05
4.00959e-05
4.0094e-05
4.00922e-05
4.00903e-05
4.00887e-05
4.00872e-05
4.0086e-05
4.00647e-05
4.00675e-05
4.00695e-05
4.00709e-05
4.00721e-05
4.00733e-05
4.00745e-05
4.00758e-05
4.00775e-05
4.00794e-05
4.00817e-05
4.00842e-05
4.00868e-05
4.00894e-05
4.00918e-05
4.00941e-05
4.0096e-05
4.00974e-05
4.00984e-05
4.00991e-05
4.00995e-05
4.00997e-05
4.00998e-05
4.00999e-05
4.01001e-05
4.01003e-05
4.01006e-05
4.01008e-05
4.01009e-05
4.01009e-05
4.01006e-05
4.01001e-05
4.00993e-05
4.00982e-05
4.00969e-05
4.00955e-05
4.00939e-05
4.00923e-05
4.00907e-05
4.00892e-05
4.00879e-05
4.0057e-05
4.00596e-05
4.00616e-05
4.00633e-05
4.00647e-05
4.0066e-05
4.00673e-05
4.00687e-05
4.00702e-05
4.00719e-05
4.00738e-05
4.00759e-05
4.00783e-05
4.00808e-05
4.00833e-05
4.00857e-05
4.00879e-05
4.00899e-05
4.00914e-05
4.00926e-05
4.00935e-05
4.0094e-05
4.00944e-05
4.00946e-05
4.00949e-05
4.00952e-05
4.00955e-05
4.00959e-05
4.00962e-05
4.00964e-05
4.00965e-05
4.00965e-05
4.00962e-05
4.00957e-05
4.00949e-05
4.0094e-05
4.00929e-05
4.00917e-05
4.00904e-05
4.00892e-05
4.0088e-05
4.00481e-05
4.00503e-05
4.00521e-05
4.00538e-05
4.00553e-05
4.00568e-05
4.00583e-05
4.00597e-05
4.00612e-05
4.00628e-05
4.00646e-05
4.00665e-05
4.00685e-05
4.00707e-05
4.00731e-05
4.00754e-05
4.00777e-05
4.00799e-05
4.00818e-05
4.00835e-05
4.00849e-05
4.00859e-05
4.00867e-05
4.00873e-05
4.00878e-05
4.00882e-05
4.00887e-05
4.00892e-05
4.00897e-05
4.00902e-05
4.00906e-05
4.00909e-05
4.0091e-05
4.0091e-05
4.00907e-05
4.00903e-05
4.00897e-05
4.00889e-05
4.0088e-05
4.0087e-05
4.00862e-05
4.00385e-05
4.00401e-05
4.00415e-05
4.00429e-05
4.00443e-05
4.00458e-05
4.00474e-05
4.00489e-05
4.00504e-05
4.00519e-05
4.00535e-05
4.00552e-05
4.00569e-05
4.00589e-05
4.00609e-05
4.00631e-05
4.00653e-05
4.00674e-05
4.00695e-05
4.00713e-05
4.0073e-05
4.00743e-05
4.00754e-05
4.00762e-05
4.00769e-05
4.00774e-05
4.0078e-05
4.00785e-05
4.00791e-05
4.00796e-05
4.00802e-05
4.00807e-05
4.00811e-05
4.00814e-05
4.00816e-05
4.00815e-05
4.00814e-05
4.0081e-05
4.00806e-05
4.008e-05
4.00796e-05
4.00283e-05
4.00292e-05
4.00301e-05
4.00311e-05
4.00323e-05
4.00336e-05
4.00349e-05
4.00363e-05
4.00376e-05
4.00389e-05
4.00403e-05
4.00416e-05
4.00431e-05
4.00446e-05
4.00462e-05
4.00479e-05
4.00496e-05
4.00515e-05
4.00534e-05
4.00554e-05
4.00573e-05
4.0059e-05
4.00606e-05
4.00619e-05
4.00631e-05
4.00642e-05
4.00652e-05
4.00661e-05
4.0067e-05
4.00679e-05
4.00688e-05
4.00696e-05
4.00704e-05
4.00711e-05
4.00717e-05
4.00721e-05
4.00725e-05
4.00726e-05
4.00726e-05
4.00725e-05
4.00725e-05
4.00175e-05
4.00179e-05
4.00183e-05
4.00189e-05
4.00197e-05
4.00206e-05
4.00215e-05
4.00223e-05
4.00231e-05
4.00239e-05
4.00246e-05
4.00254e-05
4.00263e-05
4.00274e-05
4.00291e-05
4.00312e-05
4.00333e-05
4.00354e-05
4.00373e-05
4.0039e-05
4.00406e-05
4.00421e-05
4.00433e-05
4.00444e-05
4.00454e-05
4.00461e-05
4.00468e-05
4.00475e-05
4.00481e-05
4.00488e-05
4.00494e-05
4.00501e-05
4.00508e-05
4.00515e-05
4.00522e-05
4.00528e-05
4.00533e-05
4.00537e-05
4.0054e-05
4.00541e-05
4.00543e-05
4.00061e-05
4.00061e-05
4.00063e-05
4.00065e-05
4.00068e-05
4.00071e-05
4.00074e-05
4.00077e-05
4.00079e-05
4.00079e-05
4.00077e-05
4.00073e-05
4.00062e-05
4.00058e-05
4.00066e-05
4.00083e-05
4.00106e-05
4.0013e-05
4.00155e-05
4.00179e-05
4.00201e-05
4.00221e-05
4.00238e-05
4.00253e-05
4.00265e-05
4.00274e-05
4.00281e-05
4.00286e-05
4.00289e-05
4.0029e-05
4.0029e-05
4.00291e-05
4.00293e-05
4.00297e-05
4.00302e-05
4.00307e-05
4.00314e-05
4.0032e-05
4.00328e-05
4.00334e-05
4.00343e-05
0.00155299
0.00117947
0.000393359
2.36168e-05
7.38292e-06
1.65077e-05
3.38898e-05
3.97822e-05
4.08474e-05
4.1331e-05
4.17129e-05
4.17177e-05
4.1344e-05
4.08835e-05
4.05589e-05
4.04128e-05
4.03875e-05
4.04179e-05
4.04604e-05
4.04908e-05
4.05046e-05
4.05002e-05
4.04805e-05
4.04556e-05
4.0437e-05
4.04218e-05
4.04059e-05
4.03978e-05
4.03964e-05
4.03964e-05
4.03946e-05
4.03945e-05
4.03976e-05
4.0401e-05
4.04051e-05
4.04105e-05
4.04157e-05
4.04209e-05
4.04264e-05
4.04325e-05
4.04389e-05
4.04449e-05
4.04504e-05
4.04553e-05
4.04582e-05
4.04587e-05
4.04562e-05
4.04499e-05
4.04399e-05
4.04264e-05
4.04096e-05
4.039e-05
4.0368e-05
4.03444e-05
4.032e-05
4.02961e-05
4.02747e-05
4.02577e-05
4.02461e-05
4.02375e-05
4.02304e-05
4.02241e-05
4.02179e-05
4.02116e-05
4.02052e-05
4.01986e-05
4.01919e-05
4.01852e-05
4.01786e-05
4.01724e-05
4.01665e-05
4.01609e-05
4.01558e-05
4.01477e-05
0.00357575
0.00300082
0.00152246
0.0003483
2.00645e-06
4.11016e-06
3.92045e-06
2.87332e-05
4.17009e-05
4.35042e-05
4.25415e-05
4.16795e-05
4.13199e-05
4.11765e-05
4.09714e-05
4.07095e-05
4.0512e-05
4.0443e-05
4.0468e-05
4.05183e-05
4.05512e-05
4.05523e-05
4.05276e-05
4.04931e-05
4.04638e-05
4.04399e-05
4.042e-05
4.04109e-05
4.04115e-05
4.04144e-05
4.04156e-05
4.04188e-05
4.04245e-05
4.0431e-05
4.04377e-05
4.04446e-05
4.04509e-05
4.04567e-05
4.04626e-05
4.0469e-05
4.04749e-05
4.048e-05
4.04842e-05
4.0487e-05
4.04874e-05
4.04849e-05
4.04789e-05
4.04689e-05
4.04552e-05
4.0438e-05
4.04175e-05
4.03944e-05
4.03694e-05
4.03434e-05
4.03175e-05
4.02934e-05
4.02731e-05
4.02583e-05
4.02485e-05
4.02412e-05
4.0235e-05
4.02293e-05
4.02235e-05
4.02174e-05
4.0211e-05
4.02044e-05
4.01976e-05
4.01908e-05
4.01841e-05
4.01777e-05
4.01716e-05
4.01658e-05
4.01605e-05
4.0152e-05
0.00567745
0.00515352
0.00344669
0.00154782
0.000377134
0.000119062
2.69959e-06
7.17929e-06
1.34746e-05
3.2789e-05
4.385e-05
4.5112e-05
4.31733e-05
4.14646e-05
4.07627e-05
4.06996e-05
4.07256e-05
4.06528e-05
4.05575e-05
4.05285e-05
4.0561e-05
4.05966e-05
4.05963e-05
4.05624e-05
4.05162e-05
4.04726e-05
4.044e-05
4.04235e-05
4.0422e-05
4.04268e-05
4.04325e-05
4.04409e-05
4.04511e-05
4.04622e-05
4.04729e-05
4.04824e-05
4.04901e-05
4.04966e-05
4.05026e-05
4.05086e-05
4.05136e-05
4.05171e-05
4.05192e-05
4.05194e-05
4.05167e-05
4.05108e-05
4.05009e-05
4.0487e-05
4.04693e-05
4.04481e-05
4.04239e-05
4.03974e-05
4.03696e-05
4.03417e-05
4.0315e-05
4.02914e-05
4.02727e-05
4.026e-05
4.02519e-05
4.02457e-05
4.02402e-05
4.0235e-05
4.02294e-05
4.02234e-05
4.0217e-05
4.02103e-05
4.02034e-05
4.01965e-05
4.01896e-05
4.0183e-05
4.01766e-05
4.01706e-05
4.0165e-05
4.01563e-05
0.00725797
0.00705341
0.00561136
0.00354949
0.00173329
0.000542198
9.20865e-06
6.84682e-05
3.07802e-06
8.16681e-06
1.68057e-05
3.48182e-05
4.50394e-05
4.66683e-05
4.40631e-05
4.14861e-05
4.03161e-05
4.02773e-05
4.05441e-05
4.0678e-05
4.06716e-05
4.06372e-05
4.0624e-05
4.06162e-05
4.059e-05
4.05433e-05
4.04938e-05
4.04568e-05
4.04397e-05
4.04382e-05
4.04457e-05
4.04596e-05
4.04756e-05
4.04924e-05
4.05082e-05
4.05213e-05
4.05316e-05
4.05394e-05
4.05457e-05
4.05511e-05
4.05547e-05
4.05562e-05
4.05556e-05
4.05524e-05
4.0546e-05
4.05361e-05
4.0522e-05
4.05038e-05
4.04819e-05
4.04567e-05
4.04287e-05
4.03991e-05
4.0369e-05
4.03398e-05
4.0313e-05
4.02902e-05
4.02733e-05
4.02627e-05
4.0256e-05
4.02507e-05
4.02459e-05
4.02409e-05
4.02355e-05
4.02296e-05
4.02232e-05
4.02163e-05
4.02093e-05
4.02021e-05
4.01949e-05
4.01881e-05
4.01815e-05
4.01752e-05
4.01695e-05
4.01603e-05
0.00816485
0.00849943
0.00756607
0.00582019
0.00393214
0.00229929
0.00107413
0.000358755
0.000209651
7.22366e-05
8.69023e-06
5.41675e-06
1.54011e-05
3.15925e-05
4.29904e-05
4.69173e-05
4.50624e-05
4.1946e-05
4.01559e-05
3.99614e-05
4.03824e-05
4.07052e-05
4.07756e-05
4.0716e-05
4.06429e-05
4.05915e-05
4.05555e-05
4.05223e-05
4.04933e-05
4.04743e-05
4.04696e-05
4.04794e-05
4.04976e-05
4.052e-05
4.05419e-05
4.05601e-05
4.0574e-05
4.05839e-05
4.0591e-05
4.05959e-05
4.0598e-05
4.05971e-05
4.05933e-05
4.05861e-05
4.05754e-05
4.05608e-05
4.05421e-05
4.05194e-05
4.04932e-05
4.04639e-05
4.04325e-05
4.04001e-05
4.03681e-05
4.03382e-05
4.03117e-05
4.02901e-05
4.02749e-05
4.02662e-05
4.02607e-05
4.02562e-05
4.02519e-05
4.02471e-05
4.02418e-05
4.02358e-05
4.02293e-05
4.02223e-05
4.0215e-05
4.02076e-05
4.02002e-05
4.01931e-05
4.01862e-05
4.01796e-05
4.01737e-05
4.01641e-05
0.00838925
0.00930066
0.00906639
0.00788997
0.00634363
0.00477273
0.00332259
0.00205995
0.00104101
0.000387518
2.49794e-05
0.000121275
4.47317e-05
3.79735e-06
4.38977e-06
2.2872e-05
3.82786e-05
4.58554e-05
4.59528e-05
4.28887e-05
4.04655e-05
3.98579e-05
4.02247e-05
4.06631e-05
4.08212e-05
4.07614e-05
4.06484e-05
4.05693e-05
4.05333e-05
4.05218e-05
4.05207e-05
4.05262e-05
4.05367e-05
4.05538e-05
4.05751e-05
4.05964e-05
4.06147e-05
4.06285e-05
4.06375e-05
4.06424e-05
4.0643e-05
4.06396e-05
4.06322e-05
4.06206e-05
4.0605e-05
4.05853e-05
4.05615e-05
4.0534e-05
4.05033e-05
4.04702e-05
4.04355e-05
4.04007e-05
4.03674e-05
4.03372e-05
4.03114e-05
4.02911e-05
4.02775e-05
4.02703e-05
4.02658e-05
4.0262e-05
4.0258e-05
4.02535e-05
4.02481e-05
4.02421e-05
4.02354e-05
4.02282e-05
4.02207e-05
4.0213e-05
4.02053e-05
4.01979e-05
4.01907e-05
4.01839e-05
4.01777e-05
4.01677e-05
0.00787027
0.0092152
0.00982857
0.0094476
0.00846568
0.00728167
0.00604175
0.0047772
0.00351095
0.0023325
0.00135886
0.000649818
0.000223337
0.00022708
0.000103121
3.03129e-06
1.28989e-05
8.04881e-06
3.01807e-05
4.32136e-05
4.63093e-05
4.41672e-05
4.13096e-05
4.00327e-05
4.00835e-05
4.05294e-05
4.08009e-05
4.08095e-05
4.06949e-05
4.05907e-05
4.05461e-05
4.0551e-05
4.05767e-05
4.0605e-05
4.06285e-05
4.06461e-05
4.06605e-05
4.06728e-05
4.06826e-05
4.06882e-05
4.06884e-05
4.0683e-05
4.06722e-05
4.0656e-05
4.0635e-05
4.06097e-05
4.05804e-05
4.05478e-05
4.05127e-05
4.04758e-05
4.04383e-05
4.04015e-05
4.03673e-05
4.03372e-05
4.03123e-05
4.02932e-05
4.0281e-05
4.02748e-05
4.02712e-05
4.0268e-05
4.02643e-05
4.02598e-05
4.02544e-05
4.02482e-05
4.02414e-05
4.0234e-05
4.02262e-05
4.02183e-05
4.02103e-05
4.02026e-05
4.01951e-05
4.01879e-05
4.01816e-05
4.0171e-05
0.00678229
0.00817452
0.00944832
0.0100641
0.00989841
0.00927723
0.00848425
0.00756524
0.00650763
0.00535405
0.00419365
0.00308115
0.00207912
0.00119477
0.000564439
0.000132041
2.18475e-05
1.6361e-05
2.83603e-06
1.04587e-05
2.00953e-05
3.70601e-05
4.50189e-05
4.5033e-05
4.2304e-05
4.03288e-05
3.9859e-05
4.02153e-05
4.06419e-05
4.08223e-05
4.07929e-05