/*--------------------------------*- C++ -*----------------------------------*\
| =========                 |                                                 |
| \\      /  F ield         | OpenFOAM: The Open Source CFD Toolbox           |
|  \\    /   O peration     | Version:  2312                                  |
|   \\  /    A nd           | Website:  www.openfoam.com                      |
|    \\/     M anipulation  |                                                 |
\*---------------------------------------------------------------------------*/
FoamFile
{
    version     2.0;
    format      ascii;
    arch        "LSB;label=32;scalar=64";
    class       volScalarField;
    location    "50";
    object      p;
}
// * * * * * * * * * * * * * * * * * * * * * * * * * * * * * * * * * * * * * //

dimensions      [0 2 -2 0 0 0 0];

internalField   nonuniform List<scalar> 
11040
(
-24.03
-20.72
-18.1984
-16.3388
-14.2182
-14.6659
-17.0696
-19.2676
-21.0461
-22.3059
-24.3251
-27.4383
-29.2532
-29.14
-29.3533
-30.7475
-33.246
-37.4839
-42.9814
-49.2323
-55.7242
-61.7943
-67.1429
-71.5579
-74.5747
-76.2714
-76.2285
-74.9488
-72.1776
-68.4733
-63.8131
-58.6824
-53.167
-47.5687
-42.0421
-36.8197
-32.0694
-27.5208
-22.7396
-18.9598
-20.5127
-11.772
-16.203
-18.8412
-17.3065
-15.1008
-14.9162
-16.7231
-18.7091
-20.7683
-22.2696
-24.1685
-27.1562
-29.0584
-29.0827
-29.2508
-30.4912
-32.8206
-36.9612
-42.4156
-48.6527
-55.1694
-61.2981
-66.7246
-71.2328
-74.3584
-76.1494
-76.2054
-74.9938
-72.2902
-68.6254
-63.9978
-58.8769
-53.3679
-47.7694
-42.2461
-37.0321
-32.293
-27.7667
-23.0493
-19.3524
-20.848
-4.41296
-10.1965
-17.1611
-18.0168
-16.0649
-15.0157
-15.7915
-17.6233
-20.16
-22.1599
-24.1268
-27.0105
-28.9094
-29.0111
-29.1587
-30.3205
-32.5565
-36.6362
-42.033
-48.2036
-54.6842
-60.8333
-66.2982
-70.8562
-74.0717
-75.9353
-76.0937
-74.9455
-72.3222
-68.7017
-64.118
-59.0124
-53.5158
-47.9253
-42.4155
-37.2226
-32.5003
-27.9964
-23.3631
-19.7901
-20.9337
-0.73824
-6.38097
-11.9697
-16.4614
-16.2712
-14.6097
-14.4347
-16.4326
-19.537
-22.0209
-24.041
-26.8666
-28.7531
-28.9106
-29.0368
-30.2155
-32.4611
-36.449
-41.7159
-47.7792
-54.1998
-60.3633
-65.8809
-70.5055
-73.8301
-75.779
-76.0612
-74.9841
-72.4559
-68.8836
-64.3516
-59.2591
-53.774
-48.1869
-42.6907
-37.5207
-32.8147
-28.3279
-23.7787
-20.2939
-20.7256
2.57772
-2.70671
-7.26309
-12.1853
-14.9079
-13.8512
-12.9537
-14.9053
-18.6865
-21.7976
-23.7834
-26.4598
-28.4248
-28.721
-28.7972
-29.9833
-32.2814
-36.1555
-41.2676
-47.2209
-53.5964
-59.7851
-65.3701
-70.0806
-73.5438
-75.6081
-76.0457
-75.0665
-72.6572
-69.1515
-64.6847
-59.6129
-54.1408
-48.5549
-43.0675
-37.9159
-33.2174
-28.7429
-24.2857
-20.8532
-20.4199
4.82315
0.231
-4.18416
-8.32601
-11.7453
-12.6682
-11.7606
-13.1112
-17.3796
-21.4653
-23.6562
-25.8594
-27.7477
-28.3175
-28.4474
-29.6642
-32.0284
-35.7872
-40.7395
-46.5854
-52.9267
-59.1532
-64.8217
-69.6469
-73.2715
-75.4858
-76.1007
-75.2457
-72.967
-69.5402
-65.1422
-60.0952
-54.6361
-49.049
-43.5656
-38.422
-33.715
-29.24
-24.872
-21.4541
-20.2189
6.18006
2.31312
-1.7454
-5.6226
-8.78509
-10.6374
-11.0473
-11.6511
-15.7919
-21.0864
-24.2192
-25.8415
-26.8813
-27.5209
-27.9027
-29.2487
-31.6971
-35.3543
-40.1481
-45.8784
-52.1863
-58.4621
-64.2277
-69.1984
-73.0195
-75.4371
-76.2646
-75.5744
-73.4412
-70.1091
-65.779
-60.7586
-55.3085
-49.7152
-44.2266
-39.0715
-34.3332
-29.8408
-25.5504
-22.1091
-20.2218
6.94434
3.71337
0.275355
-3.26318
-6.47306
-8.80132
-10.2871
-11.3495
-14.3829
-20.4204
-25.1962
-26.8607
-26.5892
-26.3642
-27.0109
-28.5755
-31.1841
-34.8027
-39.4747
-45.1076
-51.4037
-57.7513
-63.6419
-68.7963
-72.8587
-75.5322
-76.6162
-76.1276
-74.1574
-70.9276
-66.662
-61.6636
-56.2153
-50.6079
-45.0972
-39.9031
-35.0996
-30.5666
-26.3172
-22.8098
-20.3926
7.29329
4.558
1.69709
-1.30504
-4.34153
-7.09917
-9.39383
-11.4063
-14.107
-19.257
-25.1735
-27.6859
-26.8886
-25.3832
-25.873
-27.5708
-30.3903
-34.0575
-38.6823
-44.2623
-50.5852
-57.0448
-63.1055
-68.4929
-72.8517
-75.8463
-77.2463
-77.0088
-75.2304
-72.1163
-67.9153
-62.9314
-57.4724
-51.8309
-46.2664
-40.9862
-36.0681
-31.4497
-27.1766
-23.5435
-20.6685
7.30989
4.95534
2.54163
0.00571522
-2.63206
-5.32872
-8.01259
-10.7041
-13.6763
-17.8564
-23.3128
-26.9766
-26.4595
-24.945
-24.8976
-26.4688
-29.3587
-33.0922
-37.7447
-43.3437
-49.7561
-56.3931
-62.6869
-68.3693
-73.0857
-76.4796
-78.2597
-78.3529
-76.807
-73.847
-69.7134
-64.7405
-59.2415
-53.5237
-47.8418
-42.3976
-37.2904
-32.5081
-28.1154
-24.273
-20.9765
7.0666
5.00036
2.92052
0.741857
-1.5373
-3.9208
-6.45118
-9.20865
-12.277
-15.876
-20.1791
-24.1134
-25.5842
-24.564
-23.6685
-25.3547
-28.3675
-32.0594
-36.7272
-42.3879
-48.9503
-55.8417
-62.4535
-68.5061
-73.6579
-77.5134
-79.8002
-80.3056
-79.1071
-76.3417
-72.3147
-67.3243
-61.7349
-55.85
-49.9372
-44.2151
-38.8014
-33.752
-29.1051
-24.9678
-21.2531
6.62961
4.77753
2.94646
1.04435
-0.956939
-3.05906
-5.29769
-7.75274
-10.5272
-13.6943
-17.1936
-20.6317
-23.0965
-23.7816
-23.5487
-24.2373
-26.9389
-30.9985
-35.7924
-41.5053
-48.2314
-55.4199
-62.4392
-68.9717
-74.6353
-79.0814
-81.972
-83.0872
-82.3576
-79.9173
-76.0132
-70.981
-65.1971
-59.0021
-52.7063
-46.5439
-40.7052
-35.2443
-30.2343
-25.6967
-21.6014
6.05822
4.37034
2.722
1.03585
-0.739585
-2.61833
-4.61879
-6.77848
-9.15911
-11.831
-14.7894
-17.8265
-20.5064
-22.3068
-23.3486
-24.3344
-26.2569
-29.7544
-34.7249
-40.7476
-47.6601
-55.128
-62.5704
-69.6442
-75.9201
-81.0787
-84.7356
-86.6532
-86.5892
-84.6239
-80.9092
-75.823
-69.7492
-63.12
-56.2898
-49.5711
-43.1846
-37.2229
-31.7465
-26.7787
-22.3189
5.40638
3.85199
2.34722
0.829978
-0.751734
-2.42649
-4.21435
-6.13427
-8.21062
-10.4722
-12.9449
-15.59
-18.2553
-20.6703
-22.7006
-24.5341
-26.64
-29.5704
-33.8493
-39.6958
-46.9218
-54.7949
-62.6348
-70.1572
-77.0476
-82.8364
-87.2531
-89.917
-90.6612
-89.3156
-86.0236
-81.0301
-74.7958
-67.7989
-60.4754
-53.2271
-46.2858
-39.8215
-33.8614
-28.4854
-23.6845
4.71823
3.2809
1.899
0.52377
-0.890243
-2.37447
-3.95289
-5.64153
-7.45881
-9.41824
-11.5323
-13.8065
-16.2275
-18.7292
-21.2401
-23.7725
-26.4831
-29.6339
-33.5752
-38.7296
-45.4189
-53.2315
-61.3846
-69.4606
-76.9194
-83.3403
-88.377
-91.7607
-93.2063
-92.5583
-89.8179
-85.1877
-79.0821
-72.0066
-64.4614
-56.8612
-49.5304
-42.6204
-36.2618
-30.4866
-25.3924
4.03335
2.70395
1.43194
0.179359
-1.09197
-2.40943
-3.7989
-5.27596
-6.85721
-8.55768
-10.3899
-12.3641
-14.4919
-16.7743
-19.2177
-21.8532
-24.7707
-28.1057
-32.0336
-36.7967
-42.7189
-49.6567
-57.1328
-64.9169
-72.483
-79.2792
-84.7799
-88.6362
-90.5771
-90.5243
-88.4982
-84.6092
-79.1221
-72.4991
-65.2546
-57.8314
-50.5907
-43.7145
-37.3649
-31.5877
-26.4973
3.39395
2.16722
0.996343
-0.149315
-1.30067
-2.4814
-3.71361
-5.01427
-6.39644
-7.87333
-9.45686
-11.1615
-13.0017
-14.9896
-17.1407
-19.4857
-22.0819
-25.0281
-28.4453
-32.4694
-37.2619
-42.744
-48.6338
-54.8134
-60.9586
-66.6829
-71.5057
-75.0507
-76.9908
-77.1849
-75.6233
-72.5349
-68.2223
-63.0125
-57.2592
-51.2906
-45.3963
-39.7265
-34.4232
-29.5419
-25.1805
2.84166
1.70916
0.629937
-0.422231
-1.47241
-2.54115
-3.64644
-4.80383
-6.02475
-7.31989
-8.69782
-10.1713
-11.7535
-13.4579
-15.2965
-17.2882
-19.4564
-21.8431
-24.5003
-27.4981
-30.8918
-34.6056
-38.4652
-42.3838
-46.1794
-49.6673
-52.59
-54.7458
-55.9392
-56.0959
-55.1945
-53.3276
-50.6406
-47.3399
-43.6464
-39.7578
-35.853
-32.024
-28.366
-24.9333
-21.7899
2.38183
1.33434
0.33829
-0.629676
-1.59012
-2.56107
-3.55765
-4.59329
-5.67842
-6.82244
-8.0314
-9.31495
-10.6818
-12.1428
-13.7049
-15.3803
-17.1772
-19.1108
-21.1903
-23.4333
-25.8405
-28.3348
-30.7955
-33.1681
-35.3515
-37.2653
-38.79
-39.8478
-40.3521
-40.2844
-39.6425
-38.4857
-36.8911
-34.9468
-32.7388
-30.3616
-27.9198
-25.4734
-23.0905
-20.8129
-18.6838
2.00435
1.03532
0.115829
-0.774724
-1.65377
-2.53659
-3.43648
-4.3645
-5.32924
-6.33916
-7.39898
-8.51578
-9.69478
-10.9426
-12.2622
-13.6596
-15.1364
-16.6982
-18.3428
-20.0709
-21.8666
-23.6561
-25.3493
-26.9108
-28.2761
-29.406
-30.2418
-30.7575
-30.9205
-30.7383
-30.2177
-29.396
-28.313
-27.0188
-25.5673
-24.0139
-22.4166
-20.8027
-19.2131
-17.6728
-16.2109
1.69417
0.797725
-0.0502517
-0.869938
-1.67354
-2.47675
-3.28847
-4.12084
-4.97728
-5.86825
-6.79335
-7.7623
-8.77307
-9.83459
-10.9416
-12.1026
-13.3084
-14.5659
-15.8608
-17.1955
-18.543
-19.8531
-21.0545
-22.1326
-23.0377
-23.7581
-24.2558
-24.5308
-24.5636
-24.3712
-23.9583
-23.356
-22.5885
-21.6902
-20.6931
-19.6301
-18.5349
-17.423
-16.3201
-15.2406
-14.2027
1.44062
0.611646
-0.170875
-0.924013
-1.65953
-2.3888
-3.12259
-3.86753
-4.63034
-5.41436
-6.22451
-7.06208
-7.93129
-8.8305
-9.76186
-10.7217
-11.7102
-12.7196
-13.7461
-14.7759
-15.7972
-16.7576
-17.6238
-18.3721
-18.9879
-19.4507
-19.7565
-19.895
-19.8724
-19.6914
-19.3691
-18.9204
-18.3676
-17.7299
-17.0283
-16.284
-15.5139
-14.7321
-13.948
-13.1778
-12.4233
1.23348
0.467282
-0.254197
-0.946659
-1.61907
-2.28222
-2.94504
-3.61371
-4.29315
-4.98624
-5.69627
-6.42429
-7.17306
-7.94016
-8.72557
-9.52495
-10.3366
-11.1526
-11.9678
-12.7694
-13.5462
-14.2587
-14.8857
-15.4123
-15.8309
-16.1305
-16.3126
-16.3738
-16.3222
-16.1626
-15.909
-15.5718
-15.1666
-14.7057
-14.2021
-13.6685
-13.1157
-12.5509
-11.9798
-11.4142
-10.8541
1.06602
0.357589
-0.308007
-0.943971
-1.55949
-2.16191
-2.76171
-3.36161
-3.96834
-4.58129
-5.20547
-5.83872
-6.4861
-7.14169
-7.80746
-8.47507
-9.14538
-9.8071
-10.4584
-11.0842
-11.6791
-12.21
-12.6677
-13.0403
-13.3274
-13.5213
-13.6283
-13.6465
-13.5856
-13.4486
-13.2473
-12.9885
-12.6835
-12.3395
-11.9653
-11.5692
-11.1577
-10.7362
-10.3084
-9.88273
-9.45888
0.931064
0.276448
-0.337377
-0.922534
-1.485
-2.03355
-2.57514
-3.11484
-3.65515
-4.19879
-4.74584
-5.29814
-5.85507
-6.41655
-6.97805
-7.53734
-8.08838
-8.62755
-9.14631
-9.63885
-10.094
-10.4943
-10.8286
-11.0969
-11.2937
-11.422
-11.4818
-11.4788
-11.4159
-11.3006
-11.1377
-10.9352
-10.6987
-10.4346
-10.1487
-9.8464
-9.53315
-9.21117
-8.88534
-8.55942
-8.23592
0.823971
0.218155
-0.348169
-0.886195
-1.40097
-1.89984
-2.38969
-2.87438
-3.35643
-3.83747
-4.31777
-4.79793
-5.27765
-5.75645
-6.23046
-6.69705
-7.15106
-7.58902
-8.00413
-8.39158
-8.74287
-9.04533
-9.29298
-9.48699
-9.62461
-9.70889
-9.74107
-9.72622
-9.66677
-9.56868
-9.43573
-9.27391
-9.0873
-8.88089
-8.65855
-8.42445
-8.18261
-7.93482
-7.6847
-7.43516
-7.1878
0.739105
0.178912
-0.344083
-0.83948
-1.31022
-1.76469
-2.2073
-2.64333
-3.07285
-3.49917
-3.92037
-4.33867
-4.75153
-5.16056
-5.56053
-5.95101
-6.32542
-6.68288
-7.01601
-7.32295
-7.59548
-7.82627
-8.01101
-8.15288
-8.24931
-8.30437
-8.31875
-8.29748
-8.24236
-8.15858
-8.04883
-7.91806
-7.76933
-7.60641
-7.43234
-7.25024
-7.06304
-6.87203
-6.67989
-6.48885
-6.29979
0.672902
0.153905
-0.32903
-0.784934
-1.2164
-1.62983
-2.03088
-2.42235
-2.80628
-3.18326
-3.55397
-3.91765
-4.27461
-4.62333
-4.96278
-5.28921
-5.60044
-5.89226
-6.16221
-6.40568
-6.6197
-6.79593
-6.93565
-7.03895
-7.10723
-7.14153
-7.14542
-7.12082
-7.07151
-6.99998
-6.91002
-6.80431
-6.68618
-6.55781
-6.42178
-6.28024
-6.13518
-5.98773
-5.83943
-5.69244
-5.54675
0.621085
0.140855
-0.305936
-0.725886
-1.12114
-1.49797
-1.86102
-2.2133
-2.5561
-2.89032
-3.21624
-3.53347
-3.84183
-4.14035
-4.42825
-4.70258
-4.96135
-5.20123
-5.42033
-5.61507
-5.7834
-5.91941
-6.02523
-6.10144
-6.14964
-6.1708
-6.16808
-6.14337
-6.09983
-6.03951
-5.96555
-5.88
-5.78549
-5.68373
-5.57667
-5.46585
-5.35267
-5.23788
-5.12257
-5.00832
-4.89494
0.580903
0.135492
-0.277262
-0.664183
-1.02681
-1.36996
-1.69929
-2.01603
-2.32282
-2.61896
-2.90619
-3.18279
-3.44996
-3.7056
-3.9505
-4.18111
-4.39706
-4.59451
-4.77306
-4.92916
-5.06232
-5.16753
-5.24815
-5.30442
-5.33832
-5.35054
-5.34418
-5.3205
-5.28238
-5.23139
-5.17015
-5.10036
-5.02416
-4.94286
-4.85799
-4.77061
-4.68176
-4.59183
-4.50162
-4.41221
-4.3233
0.549282
0.136813
-0.245366
-0.601888
-0.934249
-1.24744
-1.54567
-1.83131
-2.10537
-2.36877
-2.62146
-2.86368
-3.09481
-3.31484
-3.52267
-3.7176
-3.89741
-4.061
-4.2063
-4.33247
-4.43753
-4.5197
-4.58078
-4.62285
-4.64624
-4.65304
-4.64456
-4.62304
-4.58991
-4.54725
-4.49658
-4.43975
-4.37808
-4.31291
-4.24521
-4.17596
-4.10574
-4.03493
-3.96393
-3.8937
-3.82361
0.524615
0.141524
-0.211496
-0.540336
-0.845112
-1.13061
-1.40108
-1.65836
-1.90378
-2.13786
-2.3609
-2.57295
-2.77369
-2.96294
-3.14009
-3.3047
-3.45514
-3.59058
-3.70944
-3.81123
-3.89468
-3.95871
-4.00536
-4.03659
-4.05277
-4.0557
-4.04663
-4.02745
-3.99927
-3.96381
-3.9222
-3.87597
-3.82611
-3.77377
-3.71963
-3.66453
-3.60886
-3.55294
-3.49695
-3.44172
-3.3865
0.50479
0.149588
-0.177619
-0.480509
-0.759914
-1.0204
-1.26529
-1.49737
-1.71687
-1.92536
-2.12219
-2.30837
-2.48281
-2.64614
-2.79722
-2.93659
-3.06242
-3.17475
-3.27195
-3.35435
-3.42063
-3.47068
-3.50627
-3.52949
-3.54049
-3.54112
-3.53218
-3.51547
-3.49174
-3.46251
-3.42855
-3.3912
-3.35111
-3.30927
-3.26612
-3.22243
-3.17835
-3.13427
-3.09015
-3.04681
-3.00336
0.48927
0.15872
-0.143805
-0.423372
-0.679516
-0.916818
-1.13889
-1.3477
-1.54443
-1.72969
-1.90395
-2.06714
-2.21941
-2.36022
-2.48976
-2.60753
-2.71327
-2.80609
-2.88594
-2.9522
-3.00506
-3.04381
-3.07119
-3.08813
-3.09568
-3.09457
-3.08632
-3.07177
-3.05218
-3.0282
-3.00096
-2.97101
-2.93929
-2.90612
-2.87222
-2.83776
-2.80325
-2.76856
-2.73409
-2.70009
-2.66624
0.476819
0.169602
-0.111428
-0.369071
-0.604271
-0.820564
-1.02173
-1.2096
-1.38554
-1.55017
-1.70414
-1.84741
-1.98021
-2.10208
-2.21319
-2.31315
-2.40195
-2.47896
-2.5443
-2.59773
-2.6397
-2.66979
-2.69066
-2.70311
-2.70806
-2.70612
-2.69864
-2.68623
-2.67001
-2.65049
-2.62864
-2.60485
-2.57992
-2.55399
-2.52769
-2.50101
-2.4744
-2.44765
-2.42111
-2.39495
-2.36887
0.467576
0.180768
-0.0798268
-0.318373
-0.534306
-0.731751
-0.913855
-1.08281
-1.23976
-1.38579
-1.52143
-1.64702
-1.7627
-1.86823
-1.96365
-2.04877
-2.12357
-2.18765
-2.24121
-2.28427
-2.31742
-2.34066
-2.35647
-2.3656
-2.36883
-2.36662
-2.36006
-2.34968
-2.33641
-2.32066
-2.30328
-2.28456
-2.26518
-2.24521
-2.22515
-2.20494
-2.18493
-2.16489
-2.1451
-2.12571
-2.10634
0.460859
0.193254
-0.0498733
-0.270633
-0.469696
-0.6501
-0.815279
-0.966892
-1.10682
-1.23568
-1.35483
-1.46425
-1.56476
-1.65581
-1.73786
-1.81037
-1.87374
-1.92726
-1.97143
-2.0061
-2.03225
-2.04991
-2.06172
-2.06823
-2.0703
-2.06817
-2.06283
-2.0545
-2.04403
-2.03161
-2.01807
-2.00353
-1.9887
-1.97353
-1.95853
-1.9435
-1.92883
-1.91421
-1.89991
-1.88604
-1.87221
0.456999
0.206031
-0.0206551
-0.226168
-0.409991
-0.575408
-0.725328
-0.861679
-0.985964
-1.0995
-1.20327
-1.29813
-1.3845
-1.46273
-1.5327
-1.59465
-1.6483
-1.69359
-1.73025
-1.75873
-1.77935
-1.79296
-1.8015
-1.80623
-1.80743
-1.8059
-1.80189
-1.79599
-1.78825
-1.77924
-1.76908
-1.75837
-1.7472
-1.7361
-1.72497
-1.71421
-1.70354
-1.6932
-1.6828
-1.67297
-1.6627
0.455391
0.219885
0.00713554
-0.184377
-0.354897
-0.50713
-0.643627
-0.766352
-0.87675
-0.976323
-1.0662
-1.14752
-1.22094
-1.28714
-1.34621
-1.39854
-1.44393
-1.48229
-1.51319
-1.53688
-1.55348
-1.56381
-1.56966
-1.57233
-1.57229
-1.57043
-1.56702
-1.56258
-1.55699
-1.5506
-1.54333
-1.53564
-1.52752
-1.51949
-1.51148
-1.50389
-1.49647
-1.48941
-1.48227
-1.47558
-1.46829
0.456154
0.233815
0.0340096
-0.145474
-0.304134
-0.444628
-0.569385
-0.68003
-0.778195
-0.865257
-0.942646
-1.01157
-1.07306
-1.128
-1.17685
-1.22021
-1.25815
-1.29067
-1.31727
-1.33795
-1.35252
-1.36149
-1.36628
-1.36807
-1.3674
-1.3653
-1.36221
-1.35871
-1.35472
-1.35045
-1.34564
-1.34051
-1.33491
-1.32924
-1.32345
-1.31795
-1.31262
-1.30772
-1.3029
-1.29861
-1.2938
0.458783
0.248273
0.0592765
-0.109226
-0.25733
-0.387389
-0.501568
-0.601669
-0.688964
-0.765176
-0.83142
-0.889342
-0.939862
-0.984365
-1.02334
-1.05784
-1.08798
-1.11425
-1.13609
-1.15361
-1.1662
-1.17416
-1.17827
-1.17947
-1.17806
-1.17516
-1.17129
-1.16731
-1.1633
-1.15961
-1.15593
-1.15239
-1.14864
-1.14488
-1.14095
-1.13721
-1.1336
-1.13049
-1.12769
-1.12575
-1.12372
0.463161
0.262357
0.083061
-0.0760464
-0.214617
-0.335071
-0.439597
-0.529942
-0.607677
-0.674263
-0.731071
-0.779348
-0.820439
-0.855516
-0.885821
-0.912239
-0.935703
-0.956466
-0.974763
-0.990203
-1.00267
-1.01163
-1.01782
-1.02113
-1.02195
-1.02061
-1.01801
-1.01461
-1.01115
-1.00779
-1.00488
-1.00222
-0.999889
-0.99754
-0.995265
-0.992856
-0.99056
-0.988343
-0.986449
-0.985203
-0.984083
0.467724
0.275326
0.104217
-0.0462984
-0.176336
-0.288052
-0.383656
-0.464889
-0.533514
-0.591161
-0.639373
-0.679382
-0.712359
-0.739185
-0.760918
-0.778491
-0.793153
-0.805648
-0.816727
-0.82636
-0.834663
-0.841113
-0.846221
-0.849455
-0.850801
-0.850133
-0.847986
-0.844652
-0.840855
-0.836929
-0.833468
-0.830558
-0.828489
-0.827041
-0.826259
-0.825827
-0.825763
-0.825853
-0.826138
-0.82684
-0.827491
0.470863
0.285087
0.121669
-0.0205925
-0.142197
-0.245607
-0.333095
-0.406325
-0.466903
-0.516341
-0.556248
-0.58821
-0.613924
-0.634773
-0.651969
-0.666146
-0.67802
-0.688047
-0.697018
-0.705194
-0.713014
-0.720204
-0.727162
-0.733239
-0.738177
-0.741452
-0.743163
-0.743206
-0.74202
-0.739838
-0.737301
-0.734707
-0.732587
-0.73103
-0.730286
-0.730168
-0.730659
-0.731466
-0.73244
-0.733667
-0.734432
0.474218
0.293074
0.135781
0.00133667
-0.111311
-0.205319
-0.283671
-0.34874
-0.402353
-0.445848
-0.48018
-0.505984
-0.523983
-0.53506
-0.540634
-0.542407
-0.54213
-0.540865
-0.539423
-0.538164
-0.537568
-0.537613
-0.538812
-0.540676
-0.542866
-0.544726
-0.54601
-0.546281
-0.545567
-0.543825
-0.541436
-0.538679
-0.536097
-0.533986
-0.532745
-0.532442
-0.533173
-0.534734
-0.536915
-0.53964
-0.542242
0.483902
0.305431
0.150926
0.0205516
-0.0860998
-0.171756
-0.239696
-0.293159
-0.335218
-0.368774
-0.396177
-0.419341
-0.439429
-0.456908
-0.471483
-0.482369
-0.489366
-0.49331
-0.495545
-0.49701
-0.498554
-0.500599
-0.503749
-0.507793
-0.512615
-0.517657
-0.522593
-0.526806
-0.530009
-0.531867
-0.532424
-0.531775
-0.530286
-0.528314
-0.526303
-0.524544
-0.523274
-0.522543
-0.522224
-0.522403
-0.522325
0.495546
0.319118
0.165787
0.0354668
-0.0716979
-0.157099
-0.222804
-0.270867
-0.303655
-0.323295
-0.332203
-0.332366
-0.326146
-0.3155
-0.302882
-0.290212
-0.27844
-0.267262
-0.256671
-0.246578
-0.237449
-0.229342
-0.222935
-0.218184
-0.215103
-0.213364
-0.212698
-0.212612
-0.212631
-0.212357
-0.211409
-0.209744
-0.20726
-0.204295
-0.200951
-0.197734
-0.194738
-0.192346
-0.190398
-0.189135
-0.188118
0.476663
0.301971
0.157061
0.0377351
-0.0593796
-0.137835
-0.200765
-0.250765
-0.289943
-0.320156
-0.342924
-0.359696
-0.371565
-0.37965
-0.384614
-0.387263
-0.388452
-0.387956
-0.386278
-0.384578
-0.383178
-0.382676
-0.382778
-0.383725
-0.385354
-0.387865
-0.390941
-0.394566
-0.398332
-0.402118
-0.405574
-0.408635
-0.411148
-0.413229
-0.414953
-0.416591
-0.418308
-0.420416
-0.422937
-0.426223
-0.429762
-19.5068
-16.3241
-12.9093
-9.39752
-6.37075
-3.10028
-0.316806
1.73682
2.98912
3.59661
3.63271
3.44163
2.9234
2.5566
2.42525
2.41388
2.39646
2.22698
1.96105
1.64847
1.29833
1.13347
1.24674
1.62039
2.04692
2.43635
2.6357
2.76864
2.61706
2.22766
2.02887
1.66528
1.46661
1.18112
0.975694
0.862244
0.799908
0.787866
0.803011
0.790218
0.807037
0.8307
0.837523
0.841534
0.843492
0.832134
0.823201
0.821058
0.819767
0.816492
0.811847
0.806241
0.792813
0.776006
0.758865
0.738338
0.721071
0.693438
0.663823
0.628767
0.591604
0.553411
0.514872
0.473993
0.431955
0.385085
0.340921
0.292533
0.24773
0.202232
0.155592
0.111003
0.0634912
0.0275649
-20.1231
-16.7495
-13.074
-9.27258
-6.03275
-2.85034
-0.230393
1.67761
2.82568
3.38339
3.4297
3.26275
2.82841
2.5463
2.48751
2.52564
2.52682
2.35577
2.05845
1.71608
1.33909
1.15738
1.26548
1.64391
2.06889
2.4338
2.61922
2.72831
2.56418
2.17988
1.97356
1.63771
1.44091
1.16946
0.972067
0.859661
0.797042
0.782838
0.794718
0.781545
0.79641
0.817527
0.824236
0.827318
0.829805
0.820419
0.813688
0.813677
0.815044
0.813592
0.81095
0.806644
0.794716
0.779416
0.763284
0.744567
0.727525
0.700683
0.671332
0.636651
0.599459
0.56114
0.522245
0.480774
0.43815
0.390975
0.346131
0.297625
0.252433
0.206622
0.159389
0.114262
0.0662223
0.0288682
-20.1411
-16.9662
-13.1736
-9.14021
-5.70981
-2.63272
-0.192021
1.56573
2.63424
3.1621
3.24561
3.12574
2.79071
2.59147
2.58767
2.65554
2.65699
2.4707
2.13588
1.75935
1.36484
1.17455
1.28027
1.65903
2.08214
2.4248
2.59223
2.67693
2.50562
2.13419
1.9193
1.61053
1.41589
1.15833
0.967667
0.855142
0.791502
0.774873
0.783305
0.771248
0.784201
0.803022
0.80976
0.812529
0.8155
0.808499
0.80423
0.806083
0.809892
0.810344
0.809514
0.806537
0.796179
0.782476
0.767517
0.750318
0.733576
0.707464
0.678396
0.644033
0.606807
0.568307
0.529004
0.486985
0.443862
0.396447
0.351071
0.302409
0.256815
0.210664
0.162958
0.117291
0.0687378
0.0300153
-19.9741
-17.0043
-13.2502
-9.09257
-5.49988
-2.50161
-0.215356
1.40501
2.41634
2.93692
3.08372
3.03829
2.81693
2.69418
2.72436
2.79854
2.78167
2.56606
2.19313
1.77808
1.37816
1.18782
1.29197
1.66589
2.0819
2.4058
2.55116
2.6104
2.43724
2.08615
1.86398
1.58131
1.39032
1.14758
0.962477
0.849402
0.783723
0.764269
0.768959
0.759061
0.770363
0.787102
0.793804
0.797098
0.800558
0.796396
0.79484
0.798309
0.804245
0.806665
0.807386
0.805771
0.796974
0.784951
0.771278
0.755267
0.738888
0.713426
0.684687
0.650596
0.613415
0.574711
0.534968
0.492489
0.448974
0.401433
0.355688
0.306848
0.26087
0.214344
0.166299
0.120081
0.0710249
0.0309663
-19.6863
-16.9113
-13.3026
-9.19461
-5.49595
-2.50939
-0.306902
1.22633
2.21192
2.75255
2.97299
3.01216
2.90269
2.84706
2.88947
2.94475
2.88899
2.63303
2.22157
1.77422
1.37719
1.19691
1.30305
1.66528
2.07093
2.37884
2.50369
2.53704
2.36463
2.03781
1.81008
1.54938
1.36283
1.13478
0.95472
0.840544
0.772642
0.750448
0.751909
0.744968
0.755081
0.770296
0.777243
0.781544
0.785829
0.784668
0.785841
0.790937
0.798777
0.803116
0.805259
0.804992
0.797754
0.787367
0.775007
0.759883
0.7439
0.718939
0.690514
0.656582
0.619487
0.580494
0.540314
0.497473
0.453602
0.406049
0.359968
0.310951
0.264581
0.217694
0.169369
0.122643
0.0730947
0.0317567
-19.298
-16.6877
-13.2301
-9.3079
-5.64192
-2.65074
-0.45509
1.05397
2.04035
2.62149
2.92124
3.05055
3.04435
3.04019
3.0735
3.08542
2.97309
2.6677
2.22191
1.75084
1.36535
1.20283
1.31228
1.65789
2.04504
2.33822
2.44558
2.45426
2.28401
1.98351
1.75452
1.51287
1.33219
1.11976
0.945037
0.829662
0.759148
0.733872
0.732388
0.728385
0.737938
0.75207
0.759463
0.76531
0.770872
0.772838
0.77676
0.783567
0.793078
0.799239
0.802729
0.803826
0.798118
0.789327
0.778264
0.763838
0.748232
0.723688
0.695564
0.66176
0.624845
0.585575
0.544991
0.501902
0.45774
0.410305
0.363952
0.314787
0.268026
0.220791
0.172227
0.125025
0.0749913
0.032396
-18.8756
-16.3187
-12.9789
-9.25166
-5.74116
-2.81386
-0.604481
0.933352
1.95563
2.58913
2.95527
3.15558
3.22921
3.26
3.2677
3.21425
3.02738
2.6656
2.18909
1.70868
1.34269
1.20426
1.32028
1.64498
2.00916
2.28625
2.38231
2.37049
2.20287
1.92746
1.69951
1.47281
1.29776
1.10057
0.932057
0.815787
0.742857
0.714487
0.710674
0.709544
0.719041
0.732826
0.741028
0.748669
0.755852
0.760848
0.767384
0.775952
0.786959
0.794819
0.799694
0.80218
0.798024
0.790746
0.780957
0.767143
0.751879
0.727691
0.699833
0.666143
0.629437
0.589968
0.549045
0.505797
0.461407
0.41414
0.367588
0.31831
0.271168
0.223607
0.174842
0.127225
0.0767182
0.0329216
-18.4547
-15.8078
-12.5312
-8.9752
-5.63925
-2.8449
-0.67974
0.883955
1.95572
2.65
3.07155
3.31473
3.42723
3.46416
3.4364
3.31605
3.05468
2.63616
2.13241
1.65193
1.31225
1.20102
1.3246
1.62638
1.96076
2.21764
2.30606
2.27963
2.11672
1.86447
1.64121
1.42735
1.25835
1.07679
0.916305
0.800387
0.725237
0.693509
0.687455
0.688641
0.698539
0.712408
0.721731
0.731395
0.740437
0.748316
0.75735
0.767628
0.779927
0.789357
0.795588
0.799498
0.796872
0.79102
0.782468
0.769222
0.754267
0.730439
0.702851
0.66935
0.632949
0.593468
0.552306
0.509004
0.464495
0.417453
0.370842
0.32151
0.274021
0.226157
0.177241
0.129228
0.0782887
0.0333161
-18.0918
-15.2159
-11.9221
-8.52022
-5.35269
-2.69936
-0.625272
0.913476
2.00874
2.75111
3.21738
3.48536
3.60343
3.61612
3.53851
3.35655
3.03933
2.58583
2.06924
1.5975
1.28244
1.19425
1.3232
1.60173
1.90497
2.13756
2.22026
2.18585
2.03043
1.79961
1.5828
1.37906
1.21468
1.04683
0.895635
0.781796
0.705564
0.670763
0.662692
0.665755
0.676493
0.691081
0.702
0.713773
0.72477
0.735291
0.74651
0.758417
0.771852
0.782752
0.790367
0.795717
0.794626
0.790133
0.782767
0.770148
0.755488
0.732042
0.704735
0.67148
0.635453
0.596128
0.554858
0.511584
0.467034
0.420251
0.373673
0.324356
0.276563
0.228422
0.179389
0.131051
0.0797058
0.0336108
-17.8294
-14.663
-11.2691
-7.95549
-4.93598
-2.41309
-0.437589
1.0287
2.09745
2.84337
3.32427
3.59845
3.70776
3.69125
3.56994
3.34144
2.98771
2.51884
2.00732
1.55701
1.26898
1.19672
1.32032
1.56827
1.83454
2.03839
2.11467
2.07884
1.9354
1.72658
1.52004
1.32658
1.16675
1.01123
0.870071
0.760128
0.684214
0.646841
0.63677
0.640947
0.652783
0.668387
0.681287
0.695229
0.708244
0.721152
0.734352
0.747784
0.762254
0.774547
0.783517
0.790312
0.790755
0.787544
0.781312
0.769363
0.755065
0.732061
0.705113
0.672217
0.636695
0.597752
0.556547
0.513414
0.46893
0.422462
0.376036
0.326828
0.278794
0.230419
0.181307
0.132665
0.0809787
0.0337832
-17.6582
-14.2248
-10.7382
-7.44575
-4.52997
-2.09547
-0.192916
1.21773
2.22334
2.92829
3.38753
3.64114
3.72971
3.69293
3.55566
3.31632
2.95865
2.49227
1.98596
1.54436
1.26724
1.19947
1.312
1.52717
1.75269
1.92161
1.98677
1.95358
1.82827
1.64563
1.45475
1.27287
1.1174
0.971197
0.839063
0.733866
0.659525
0.620506
0.608751
0.613663
0.62687
0.643998
0.659287
0.675474
0.690493
0.705532
0.720406
0.735234
0.7507
0.764357
0.774766
0.783065
0.785119
0.783225
0.778088
0.766978
0.753086
0.730656
0.704145
0.671741
0.636814
0.598424
0.557466
0.514589
0.470254
0.42413
0.377915
0.328905
0.280718
0.232153
0.182984
0.134106
0.0821114
0.0338671
-17.6428
-14.0291
-10.4773
-7.23176
-4.3845
-2.02156
-0.148255
1.27015
2.29254
2.99836
3.44448
3.67519
3.7339
3.67018
3.51803
3.28361
2.94967
2.51799
2.0374
1.5997
1.30367
1.20217
1.27395
1.44585
1.63178
1.77071
1.82603
1.79836
1.69548
1.54379
1.37695
1.21251
1.06541
0.92837
0.804621
0.704395
0.632037
0.591763
0.578347
0.583502
0.598232
0.617253
0.635245
0.65369
0.670653
0.68751
0.703904
0.720051
0.736529
0.751571
0.763468
0.773334
0.777089
0.776576
0.772523
0.762399
0.749026
0.727368
0.701429
0.669733
0.635537
0.597916
0.557419
0.514954
0.470892
0.425159
0.379237
0.330533
0.282297
0.233614
0.184421
0.135317
0.0830997
0.0338333
-18.1045
-14.3519
-10.7738
-7.54015
-4.72468
-2.37942
-0.475336
1.00825
2.11595
2.88873
3.385
3.65069
3.7347
3.67926
3.52298
3.27698
2.94178
2.52718
2.07341
1.65269
1.34742
1.20619
1.21645
1.32002
1.4487
1.55233
1.60183
1.59233
1.5265
1.4183
1.2868
1.14637
1.01101
0.882029
0.765249
0.669998
0.600678
0.560263
0.545396
0.54996
0.565728
0.58684
0.607984
0.629104
0.648187
0.666707
0.684391
0.701698
0.719194
0.735632
0.749197
0.76073
0.766405
0.767454
0.764614
0.755663
0.742998
0.722328
0.697169
0.666371
0.633028
0.596304
0.55647
0.514579
0.470904
0.425607
0.380011
0.331694
0.283531
0.234798
0.185613
0.136344
0.0839442
0.0337134
-19.2547
-15.3603
-11.7352
-8.41805
-5.53819
-3.11018
-1.14175
0.415802
1.59235
2.43961
3.00335
3.33727
3.488
3.5019
3.40883
3.2162
2.92599
2.54575
2.1073
1.67769
1.33915
1.14615
1.09433
1.13726
1.21418
1.28146
1.31746
1.32162
1.29715
1.24624
1.17034
1.07171
0.958831
0.839117
0.724835
0.629652
0.561133
0.521756
0.507875
0.513223
0.530068
0.552716
0.576436
0.600119
0.621573
0.641899
0.661014
0.679518
0.698087
0.715942
0.731297
0.744602
0.752406
0.755231
0.753776
0.746174
0.734455
0.715052
0.690911
0.661298
0.628964
0.593326
0.554364
0.513256
0.470128
0.425347
0.38014
0.332305
0.284328
0.235655
0.186525
0.137105
0.0846278
0.0334716
-20.658
-16.6675
-13.01
-9.69327
-6.78314
-4.32419
-2.29544
-0.665574
0.601922
1.54843
2.21811
2.65784
2.90971
3.01213
2.99321
2.86815
2.64803
2.34865
2.00155
1.65035
1.34484
1.11675
0.981014
0.928539
0.935257
0.967628
1.00062
1.02572
1.04141
1.04441
1.02694
0.980617
0.903559
0.802116
0.691739
0.591951
0.517006
0.473522
0.459303
0.467135
0.487662
0.513732
0.540479
0.566469
0.59001
0.612096
0.632807
0.65275
0.672602
0.691978
0.70927
0.724519
0.734713
0.739669
0.739922
0.733953
0.723461
0.705605
0.6828
0.654629
0.623504
0.589073
0.551165
0.511016
0.468601
0.424432
0.379658
0.332362
0.284696
0.236178
0.187162
0.137656
0.0851499
0.0331408
-21.8095
-17.9196
-14.3953
-11.2047
-8.37765
-5.95871
-3.92596
-2.25477
-0.908167
0.145669
0.942146
1.51664
1.90121
2.12694
2.21835
2.1969
2.08097
1.89592
1.66678
1.42444
1.19633
1.0099
0.880275
0.804698
0.764769
0.743774
0.739957
0.759346
0.800476
0.850589
0.889193
0.89482
0.854805
0.771708
0.663083
0.554581
0.468393
0.416822
0.400048
0.409995
0.435243
0.466376
0.497455
0.526477
0.552393
0.576304
0.598749
0.620407
0.641885
0.663048
0.682483
0.699889
0.712695
0.720114
0.722434
0.718403
0.70948
0.693464
0.672346
0.645925
0.61629
0.583236
0.546597
0.507584
0.4661
0.422686
0.37844
0.331768
0.284517
0.236282
0.187454
0.137891
0.0854809
0.0326819
-21.2384
-17.9733
-15
-12.2755
-9.80107
-7.62508
-5.73544
-4.12812
-2.77454
-1.66075
-0.7623
-0.0604129
0.467921
0.844627
1.09131
1.22745
1.27246
1.2449
1.16306
1.04488
0.910231
0.781836
0.680339
0.618262
0.595944
0.604539
0.631484
0.665518
0.705002
0.752569
0.802027
0.832712
0.820988
0.755815
0.647231
0.521848
0.411113
0.338599
0.312795
0.326825
0.364355
0.408546
0.448617
0.481709
0.509029
0.533661
0.557374
0.580963
0.604646
0.628145
0.650157
0.670102
0.685819
0.696125
0.700982
0.699355
0.69241
0.678614
0.659564
0.635236
0.607366
0.575891
0.540696
0.502995
0.462636
0.420136
0.376524
0.330539
0.283807
0.235959
0.187403
0.137871
0.0856233
0.0321281
-19.016
-16.6834
-14.5142
-12.4728
-10.549
-8.78599
-7.1859
-5.76359
-4.50679
-3.41849
-2.4866
-1.70684
-1.06579
-0.553219
-0.155247
0.140248
0.346265
0.474021
0.534978
0.541015
0.507442
0.454476
0.405211
0.381062
0.394263
0.444906
0.521437
0.610031
0.699717
0.779326
0.836001
0.856175
0.830223
0.755127
0.637736
0.497624
0.363114
0.261951
0.211557
0.213864
0.256475
0.318804
0.380628
0.429905
0.464641
0.490126
0.51265
0.536035
0.561183