/*--------------------------------*- C++ -*----------------------------------*\
| =========                 |                                                 |
| \\      /  F ield         | OpenFOAM: The Open Source CFD Toolbox           |
|  \\    /   O peration     | Version:  2312                                  |
|   \\  /    A nd           | Website:  www.openfoam.com                      |
|    \\/     M anipulation  |                                                 |
\*---------------------------------------------------------------------------*/
FoamFile
{
    version     2.0;
    format      ascii;
    arch        "LSB;label=32;scalar=64";
    class       surfaceScalarField;
    location    "50";
    object      phi;
}
// * * * * * * * * * * * * * * * * * * * * * * * * * * * * * * * * * * * * * //

dimensions      [0 3 -1 0 0 0 0];

oriented        oriented;

internalField   nonuniform List<scalar> 
21876
(
0.00524504
0.00410234
-0.00935156
-0.000251234
0.00549307
-0.00163423
0.00138
-0.00150396
-0.000131577
-0.000820175
-0.000682515
0.00106873
-0.00189013
0.00220583
-0.0011553
0.00189787
0.000287919
0.00120588
0.000695905
0.00116946
3.94993e-05
0.00144072
-0.000298168
0.00158666
-0.00016876
0.00137525
0.000204756
0.00103318
0.00031997
0.000617093
0.000406616
-0.00013998
0.00073978
-0.00123312
0.00109417
-0.00259019
0.00135913
-0.00387805
0.00128446
-0.00501533
0.00113974
-0.00601628
0.000977531
-0.00683337
0.000784295
-0.00753831
0.000681346
-0.00816362
0.0006071
-0.00867816
0.000524286
-0.0090869
0.00038083
-0.00933305
0.000275097
-0.0094587
9.05247e-05
-0.00942012
-7.80485e-06
-0.00929927
-0.000139118
-0.00906362
-0.000202046
-0.00876189
-0.000307995
-0.00837235
-0.000364024
-0.00791475
-0.000446193
-0.00736808
-0.00051661
-0.00671032
-0.000631568
-0.00589177
-0.000786383
-0.0048591
-0.000997046
-0.00354895
-0.00129253
-0.00124161
-0.00222893
-0.0037257
0.00259469
0.0115738
0.00382178
-0.011295
0.00654306
0.0105221
0.000639177
0.00728137
-0.001789
0.00229405
-0.0015674
-0.00090405
-0.000132942
-0.00332892
0.000925589
-0.00222482
0.000408284
0.00080113
-0.000376763
0.00148658
-0.000136672
-0.000200791
0.000599281
-0.00104412
0.00115335
-0.000733724
0.00114685
0.000203047
0.000570426
0.000895767
-0.000334174
0.00131217
-0.00174343
0.00214626
-0.00363755
0.00298647
-0.00551499
0.00322459
-0.00709556
0.00285173
-0.00836157
0.00236756
-0.00940443
0.00197254
-0.0102297
0.00155651
-0.0109168
0.00130927
-0.0114794
0.00109444
-0.0118854
0.0008809
-0.0121692
0.000598558
-0.01229
0.000384676
-0.0123178
8.10007e-05
-0.012205
-9.68956e-05
-0.011992
-0.000343305
-0.0116437
-0.000498293
-0.0112103
-0.000705264
-0.0106718
-0.000847222
-0.0100472
-0.00102165
-0.00931724
-0.00119336
-0.00846243
-0.0014353
-0.00742813
-0.00176611
-0.00613118
-0.00223599
-0.00447468
-0.00288031
-0.00210724
-0.00450346
-0.00699192
0.00126021
0.014887
0.00159883
-0.0126667
0.0138021
0.0116062
0.00761714
0.0134665
0.00125013
0.0086621
-0.00160458
0.00195218
-0.00152214
-0.00341189
-0.0009509
-0.0028064
-0.00136311
0.0012044
-0.00173103
0.00185862
-0.00145754
-0.000467104
-0.000538231
-0.00196894
0.000367355
-0.00164626
0.000496917
7.673e-05
-0.000222062
0.00160898
-0.0016308
0.0027184
-0.00370673
0.00421767
-0.00600398
0.0052851
-0.00796439
0.00519037
-0.00952242
0.00440668
-0.0107822
0.00363615
-0.0118656
0.00305732
-0.0127614
0.00244451
-0.0135246
0.00207423
-0.0141596
0.00174012
-0.0146331
0.0013746
-0.014967
0.000930476
-0.0151109
0.000554366
-0.0151228
8.07123e-05
-0.014954
-0.000244029
-0.0146664
-0.000641547
-0.0142282
-0.000920012
-0.0136915
-0.00125025
-0.0130371
-0.00149156
-0.0122847
-0.00177393
-0.0114165
-0.00204876
-0.0104162
-0.00242881
-0.0092298
-0.0029413
-0.00776161
-0.00369796
-0.00590571
-0.00473995
-0.00346143
-0.00693041
-0.00979717
-0.000635805
0.0169458
-0.00100743
-0.0143415
0.0188378
0.00971399
0.0162347
0.0160694
0.00929462
0.0156025
0.00209145
0.00915541
-0.00182309
0.000497109
-0.00225178
-0.00239049
-0.00255178
0.00150042
-0.002971
0.00227996
-0.00300812
-0.000430994
-0.00217749
-0.00280549
-0.00102002
-0.00281067
-0.000693562
-0.000258549
-0.00156698
0.00247396
-0.00344674
0.00459094
-0.00591583
0.00668062
-0.00823287
0.00759682
-0.0100831
0.00702948
-0.0116244
0.00593172
-0.0129838
0.0049667
-0.0142314
0.00426933
-0.015297
0.00346906
-0.0162159
0.00294875
-0.0169822
0.0024529
-0.0175608
0.00191237
-0.0179634
0.00128956
-0.0181453
0.000721548
-0.018159
7.67804e-05
-0.0179651
-0.000423531
-0.0176241
-0.000967861
-0.0171136
-0.0013945
-0.016485
-0.0018467
-0.0157267
-0.00220907
-0.014859
-0.00260345
-0.01387
-0.00299849
-0.0127466
-0.00351395
-0.0114411
-0.00420842
-0.00985585
-0.00524087
-0.00789464
-0.00665476
-0.00547573
-0.00929132
-0.0121832
-0.00303694
0.0191803
-0.00362741
-0.0165616
0.0220015
0.00689144
0.0231769
0.0148938
0.0195464
0.019233
0.0113235
0.0173785
0.00210912
0.00970824
-0.00210043
0.00181098
-0.00280962
0.00220409
-0.0038437
0.00331547
-0.00466225
0.000390299
-0.00433641
-0.00313506
-0.00318435
-0.00396808
-0.00267905
-0.000764632
-0.00363104
0.00342355
-0.00570718
0.00666481
-0.00811435
0.00908479
-0.0101975
0.00967941
-0.0119753
0.00880724
-0.0136537
0.00760495
-0.0152635
0.00657941
-0.0167959
0.0058046
-0.0181197
0.00479211
-0.0192645
0.00409728
-0.0202185
0.00341826
-0.0209495
0.00265335
-0.0214575
0.00180628
-0.0217069
0.000980125
-0.0217387
0.000114477
-0.0215281
-0.00062486
-0.0211308
-0.00135886
-0.0205394
-0.00197684
-0.0198051
-0.00257474
-0.0189285
-0.00307639
-0.0179328
-0.00358996
-0.0168156
-0.00410352
-0.0155724
-0.00474539
-0.0141692
-0.0055992
-0.0125204
-0.00687962
-0.0105561
-0.0086111
-0.00830042
-0.0115329
-0.0143072
-0.00616037
0.0219658
-0.00646398
-0.019134
0.0247967
0.00406077
0.0276893
0.0120006
0.0283028
0.0186214
0.0235628
0.0221193
0.0133569
0.0199121
0.0030337
0.0121298
-0.00145546
0.00669131
-0.00366855
0.00553036
-0.00596563
0.00268565
-0.00678355
-0.002322
-0.00605209
-0.00470472
-0.00543309
-0.00138969
-0.00622443
0.0042068
-0.00801406
0.00844722
-0.00997222
0.0110359
-0.0118066
0.0115063
-0.0136723
0.010663
-0.0156394
0.00955757
-0.0176282
0.00855024
-0.0195649
0.00771759
-0.0212521
0.00645425
-0.0227131
0.00552948
-0.0239302
0.00460771
-0.0248738
0.00357091
-0.0255348
0.0024495
-0.025886
0.00131965
-0.0259574
0.000186055
-0.0257395
-0.000836319
-0.0252841
-0.00179682
-0.0246015
-0.00263946
-0.0237443
-0.00340664
-0.0227288
-0.00406635
-0.0215828
-0.00470911
-0.0203174
-0.00534126
-0.0189435
-0.00609293
-0.0174533
-0.00706053
-0.0157908
-0.00851515
-0.0139349
-0.0104339
-0.0119979
-0.0134378
-0.0160697
-0.0102027
0.0254908
-0.00980004
-0.0221539
0.0284548
0.00109463
0.0314132
0.00904556
0.0342168
0.0158192
0.0343687
0.021967
0.0285414
0.0257379
0.016689
0.0239795
0.00550622
0.0178719
-0.00118973
0.0122244
-0.00584142
0.00733494
-0.00884426
0.000674376
-0.00926597
-0.00428876
-0.00847539
-0.00218575
-0.00869373
0.00442028
-0.00984024
0.00958823
-0.0112481
0.0124381
-0.0129703
0.0132228
-0.0150671
0.0127538
-0.0174406
0.0119229
-0.0199336
0.0110386
-0.0224157
0.0101982
-0.0246038
0.0086384
-0.0265024
0.00742638
-0.0280852
0.00619175
-0.0293233
0.00481428
-0.0302039
0.00333255
-0.0307052
0.00182844
-0.0308521
0.0003381
-0.030646
-0.00103044
-0.0301412
-0.00229214
-0.0293632
-0.0034026
-0.0283718
-0.00438515
-0.0271971
-0.00522434
-0.0258746
-0.00601496
-0.0244304
-0.00676675
-0.0228954
-0.00760763
-0.0212983
-0.00863828
-0.0196274
-0.0101644
-0.017944
-0.0120993
-0.0164281
-0.0149315
-0.0173814
-0.0150981
0.0296607
-0.0137166
-0.025748
0.0331193
-0.0023613
0.0360988
0.00606876
0.0390795
0.0128377
0.0418636
0.0191829
0.0419472
0.0256509
0.0356199
0.030305
0.0231831
0.0303073
0.00964629
0.0257619
-0.00116102
0.0181401
-0.00861709
0.00812747
-0.0117435
-0.00116578
-0.0111831
-0.00275168
-0.0102372
0.0034663
-0.0106192
0.00996325
-0.0116377
0.0134486
-0.0133964
0.0149747
-0.0158136
0.0151621
-0.0186977
0.0147975
-0.0218356
0.0141663
-0.0250382
0.0133889
-0.0279064
0.0114927
-0.030412
0.00992022
-0.0325098
0.00827958
-0.0341686
0.00646544
-0.0353722
0.00453041
-0.0361058
0.00256408
-0.0363911
0.000625902
-0.0362405
-0.00117117
-0.0357116
-0.00281105
-0.0348475
-0.0042513
-0.0337153
-0.00550267
-0.0323619
-0.0065594
-0.0308316
-0.00752705
-0.0291687
-0.00840941
-0.0274272
-0.00932874
-0.0256703
-0.0103752
-0.0239348
-0.01188
-0.0223702
-0.013645
-0.0212195
-0.0160619
-0.0181611
-0.0204232
0.0346371
-0.0183453
-0.0300104
0.0387259
-0.00644372
0.0421762
0.0026149
0.04515
0.00986657
0.0481646
0.0161635
0.0512199
0.022595
0.0518771
0.0296464
0.0465604
0.0356257
0.0345409
0.0377819
0.0184702
0.0342119
0.00235131
0.0242457
-0.00888243
0.0100609
-0.0119926
0.000349181
-0.0106157
0.00207785
-0.00981177
0.00914809
-0.0105205
0.0141483
-0.0124276
0.016872
-0.0152366
0.0179624
-0.0187367
0.0182879
-0.0226771
0.018099
-0.0268115
0.017515
-0.0305923
0.015266
-0.0339415
0.0132617
-0.0367777
0.0111132
-0.0390579
0.00874411
-0.0407589
0.00623816
-0.0418713
0.00367894
-0.0424129
0.00117977
-0.0424046
-0.0011722
-0.0419073
-0.00329314
-0.0409843
-0.00516358
-0.0397117
-0.00675826
-0.0381575
-0.0080989
-0.0363789
-0.00928719
-0.0344456
-0.0103238
-0.0324385
-0.0113159
-0.0304521
-0.0123395
-0.0285566
-0.0137558
-0.0269513
-0.0152271
-0.0259046
-0.0170907
-0.0186148
-0.02543
0.040615
-0.0238999
-0.0350562
0.0454602
-0.0112934
0.0495768
-0.00149787
0.0530373
0.00640066
0.0560186
0.0131819
0.0591906
0.0194212
0.0628034
0.0260349
0.0649155
0.0335142
0.0621299
0.0405691
0.0522243
0.0441185
0.0352356
0.0412315
0.0137165
0.0315761
-0.00341477
0.0174719
-0.00901729
0.00766852
-0.007666
0.00778998
-0.00729411
0.0137669
-0.00905578
0.0186285
-0.0122273
0.0211307
-0.016429
0.0224823
-0.0213289
0.0229938
-0.0266238
0.0228025
-0.0315949
0.0202312
-0.0360964
0.0177603
-0.03999
0.0150076
-0.0431991
0.0119598
-0.0456864
0.00872031
-0.0474235
0.00544033
-0.0484376
0.00218978
-0.0487294
-0.000855143
-0.0483816
-0.00364316
-0.0474597
-0.0060639
-0.0460721
-0.00814359
-0.0443
-0.00985429
-0.0422332
-0.011345
-0.0399688
-0.0125746
-0.0376234
-0.0136456
-0.0353258
-0.0146267
-0.0331636
-0.0158993
-0.0313488
-0.0170345
-0.0300887
-0.0183298
-0.0192182
-0.0294784
0.0477484
-0.0306288
-0.0410205
0.0535794
-0.0171248
0.0585037
-0.0064252
0.0626586
0.00224275
0.0661401
0.00969811
0.0691912
0.0163686
0.0725723
0.0226532
0.0768242
0.0292622
0.0807048
0.0366889
0.0810481
0.0437736
0.0744502
0.0478284
0.0591069
0.0469179
0.0364551
0.0401205
0.0140784
0.0300457
0.00163448
0.0202283
-0.00159036
0.0169905
-0.002641
0.0196816
-0.00547689
0.0239567
-0.0101422
0.0271431
-0.0160238
0.0288642
-0.0226492
0.0294197
-0.0290774
0.0266515
-0.0350723
0.0237525
-0.0404113
0.0203503
-0.04497
0.0165059
-0.0486421
0.0124126
-0.05141
0.00819515
-0.0532251
0.00403781
-0.0541292
3.71689e-05
-0.0541373
-0.00360554
-0.0533814
-0.00682825
-0.0519495
-0.00955564
-0.0499936
-0.0118108
-0.047619
-0.0137096
-0.0449763
-0.0152092
-0.0422232
-0.0163988
-0.039512
-0.017323
-0.0369827
-0.018438
-0.0348161
-0.0191811
-0.0331878
-0.0199727
-0.0202641
-0.0321183
0.0562414
-0.0388218
-0.0480513
0.063309
-0.0241942
0.0692623
-0.0123821
0.0742573
-0.00275593
0.0784497
0.00550243
0.0819816
0.0128336
0.0851296
0.0195029
0.0886182
0.0257715
0.0931637
0.0321417
0.098078
0.0388575
0.100697
0.045209
0.0976687
0.0499444
0.0864548
0.0513369
0.0673323
0.0491681
0.0441647
0.0433965
0.0250475
0.0361118
0.0138347
0.0308858
0.00766484
0.0301278
0.00223011
0.0325682
-0.0043767
0.0354673
-0.0122087
0.0372453
-0.0201663
0.0346091
-0.0278887
0.031479
-0.0350333
0.0274918
-0.0413629
0.0228323
-0.0467264
0.0177703
-0.0510005
0.0124783
-0.0541316
0.00717099
-0.0560839
0.0020032
-0.0568718
-0.00281293
-0.0565657
-0.00712342
-0.0553164
-0.0107973
-0.0532972
-0.0138244
-0.0506822
-0.0163137
-0.0476826
-0.0182101
-0.0444823
-0.0195839
-0.0413111
-0.020504
-0.0382868
-0.0214445
-0.0356864
-0.0217997
-0.0335815
-0.0220525
-0.0218133
-0.0320567
0.0663147
-0.0488243
-0.0563163
0.0749183
-0.0327998
0.0821555
-0.0196235
0.0882141
-0.00881726
0.093264
0.000448751
0.097503
0.0085917
0.101103
0.0159
0.104316
0.0225554
0.107724
0.0287306
0.111959
0.0346212
0.116719
0.0404469
0.120313
0.046351
0.120233
0.0514175
0.114275
0.0551253
0.100748
0.0569266
0.0808526
0.0560024
0.0593552
0.0523879
0.0414139
0.0480659
0.028397
0.0455885
0.0182393
0.0456262
0.00858094
0.0469139
-0.000867544
0.044063
-0.0102005
0.0408326
-0.0191753
0.0364422
-0.0274624
0.0311391
-0.0348707
0.0251369
-0.0410975
0.018741
-0.0460551
0.0120958
-0.0495738
0.00556694
-0.0516733
-0.000735597
-0.0522867
-0.00647063
-0.0516273
-0.0114657
-0.0498557
-0.0155682
-0.0472595
-0.0189045
-0.0440847
-0.0213678
-0.0406012
-0.0230498
-0.0370606
-0.0240404
-0.0336219
-0.0248562
-0.0305637
-0.024858
-0.0279937
-0.0245877
-0.0238031
-0.0260064
0.0782196
-0.0610428
-0.0660054
0.0887107
-0.0432921
0.0975295
-0.0284467
0.104897
-0.0161865
0.111024
-0.00568147
0.116124
0.00348966
0.120412
0.0116083
0.124075
0.0188898
0.127319
0.0254835
0.130515
0.0314225
0.134094
0.0368641
0.138097
0.0423475
0.141773
0.0477391
0.143877
0.0530206
0.142569
0.0582322
0.135581
0.062991
0.121789
0.0661784
0.102925
0.0669336
0.0827862
0.0657303
0.0644952
0.0639285
0.0488594
0.0625521
0.0359705
0.0569773
0.0244402
0.0523455
0.0137678
0.0471491
0.00377059
0.0410708
-0.00526516
0.0342253
-0.0133143
0.0267219
-0.01998
0.018832
-0.0252782
0.0108124
-0.0289561
0.00301241
-0.0310598
-0.00438987
-0.0315045
-0.0109728
-0.0305801
-0.0164793
-0.0285628
-0.0208983
-0.0257685
-0.0241113
-0.0225892
-0.026236
-0.0191889
-0.0273527
-0.0159639
-0.0281168
-0.0128709
-0.0278237
-0.0103263
-0.0271963
-0.0259909
-0.0079821
0.0922526
-0.0759613
-0.0773382
0.105044
-0.0560847
0.115794
-0.0392007
0.124755
-0.0251484
0.13218
-0.0131108
0.138336
-0.002667
0.143463
0.00647783
0.147797
0.014553
0.151527
0.0217508
0.15481
0.0281366
0.157857
0.0338125
0.160981
0.0392218
0.164352
0.0443643
0.167941
0.0494286
0.171482
0.0546871
0.173989
0.0604804
0.173428
0.0667377
0.167697
0.0726635
0.156177
0.0772532
0.140149
0.0799556
0.121944
0.0807653
0.104821
0.0741017
0.089477
0.0677001
0.0759025
0.0607067
0.0638996
0.0530834
0.0532964
0.0448061
0.0441116
0.0359259
0.036316
0.026611
0.0300212
0.0171392
0.0252293
0.00780509
0.0219968
-0.00112356
0.0202649
-0.00921884
0.0198919
-0.0160774
0.0206354
-0.0216001
0.0221979
-0.0256536
0.024333
-0.0283157
0.0267045
-0.0297161
0.0291356
-0.0304849
0.0313768
-0.0300648
0.0333916
-0.0291412
-0.027635
0.0350245
0.108773
-0.0941643
-0.090574
0.124364
-0.0716768
0.137466
-0.0523063
0.148371
-0.0360542
0.157378
-0.0221216
0.164806
-0.0100957
0.170946
0.000334683
0.176081
0.00941649
0.180456
0.0173731
0.184264
0.0243266
0.187648
0.0304254
0.190789
0.0360793
0.193883
0.0412672
0.19716
0.0461491
0.200934
0.0509091
0.205567
0.055844
0.210954
0.0613458
0.216014
0.0675992
0.218959
0.074307
0.218142
0.0807688
0.212819
0.0860904
0.203902
0.0830132
0.192944
0.0786673
0.181262
0.0723787
0.169842
0.0645152
0.159188
0.0554457
0.149632
0.0454987
0.14123
0.035003
0.134071
0.024319
0.12806
0.0138154
0.12313
0.00382718
0.119147
-0.00522632
0.115998
-0.0129132
0.113482
-0.0190595
0.111435
-0.0235989
0.109759
-0.0266064
0.108274
-0.0282348
0.106876
-0.0290438
0.105483
-0.0286849
0.104129
-0.0277379
-0.0262529
0.102728
0.128206
-0.116357
-0.106016
0.147202
-0.0906733
0.163169
-0.0682763
0.176448
-0.0493338
0.187397
-0.0330727
0.196388
-0.0190877
0.203774
-0.00705287
0.20988
0.00331017
0.215008
0.0122445
0.219415
0.0199181
0.223313
0.0265277
0.226893
0.032498
0.230315
0.0378437
0.23375
0.0427123
0.237421
0.0472374
0.241708
0.0515548
0.247194
0.0558582
0.254381
0.0604093
0.263261
0.065428
0.273103
0.070922
0.28263
0.07657
0.289719
0.0759185
0.294089
0.07431
0.295746
0.0707108
0.295145
0.0651344
0.292764
0.0578124
0.289155
0.0491282
0.284602
0.0395402
0.279389
0.0295515
0.273527
0.0196658
0.267017
0.0103504
0.259848
0.00193925
0.252228
-0.00528752
0.244313
-0.0111373
0.236317
-0.0156089
0.22845
-0.0187215
0.220796
-0.0205979
0.213342
-0.0215632
0.206232
-0.0216003
0.199547
-0.0210156
-0.0199855
0.193248
0.137005
-0.140834
-0.11253
0.157944
-0.111613
0.175549
-0.0858839
0.190184
-0.0639698
0.202238
-0.0451284
0.212111
-0.0289617
0.220185
-0.0151276
0.226808
-0.00331388
0.232296
0.00675676
0.23693
0.0152828
0.240959
0.0224992
0.244613
0.028842
0.248083
0.0343756
0.251526
0.0392678
0.255105
0.0436605
0.258989
0.0476695
0.263463
0.0513868
0.268971
0.0549002
0.276088
0.0583162
0.285288
0.0617205
0.296713
0.0651541
0.308773
0.0638553
0.320785
0.0623131
0.331813
0.0596768
0.341165
0.0558004
0.348302
0.0506641
0.353034
0.0444159
0.355229
0.0373327
0.355006
0.0297905
0.352466
0.0221958
0.347883
0.0149447
0.341459
0.00835808
0.333524
0.00265155
0.324369
-0.00197787
0.31441
-0.00565416
0.304075
-0.00837404
0.293682
-0.0102161
0.283354
-0.0112152
0.273405
-0.0116698
0.263982
-0.0115643
-0.0111471
0.255121
0.143672
-0.167231
-0.117278
0.166238
-0.134181
0.185212
-0.104857
0.200973
-0.0797323
0.213941
-0.0580962
0.224538
-0.0395587
0.233172
-0.0237594
0.240213
-0.0103559
0.245998
0.000974507
0.250812
0.0104681
0.254922
0.0183932
0.258567
0.0251963
0.261961
0.0309857
0.265273
0.0359544
0.268673
0.0402648
0.272293
0.0440501
0.276273
0.0474124
0.280759
0.0504137
0.285992
0.0530913
0.292271
0.055441
0.299976
0.0574598
0.308448
0.0553801
0.31764
0.0531353
0.327067
0.0502431
0.336154
0.0467283
0.344196
0.0426098
0.350666
0.0379593
0.355081
0.0329015
0.357253
0.0276275
0.357081
0.0223522
0.354732
0.0172958
0.350434
0.0126437
0.344554
0.00852597
0.33744
0.00512976
0.329478
0.00229535
0.321038
6.52461e-05
0.312408
-0.00160534
0.303737
-0.00253929
0.295296
-0.003254
0.287244
-0.00350078
-0.00356175
0.279631
0.151006
-0.195677
-0.122562
0.175308
-0.158484
0.195733
-0.125284
0.21269
-0.0966886
0.226624
-0.0720297
0.237985
-0.0509189
0.247207
-0.0329799
0.254686
-0.0178334
0.260783
-0.00511927
0.265796
0.00545555
0.270005
0.0141884
0.273654
0.0215477
0.276964
0.0276797
0.280111
0.0328079
0.283266
0.0371137
0.286564
0.0407535
0.290135
0.0438467
0.294067
0.0464824
0.298451
0.048713
0.303342
0.0505501
0.30883
0.0519801
0.314336
0.0498703
0.319951
0.0475309
0.325525
0.0446606
0.330891
0.0413726
0.335723
0.0377658
0.339754
0.0339364
0.342656
0.029985
0.344265
0.0260223
0.344445
0.0221584
0.343243
0.0184981
0.340748
0.0151293
0.337158
0.0121109
0.332674
0.00960958
0.327536
0.00742377
0.321999
0.00560366
0.316257
0.00412315
0.310425
0.0032995
0.304674
0.00248047
0.299127
0.00205798
0.00172484
0.29382
0.159032
-0.226322
-0.128392
0.185192
-0.184648
0.207174
-0.147263
0.225402
-0.114922
0.240368
-0.0869898
0.252536
-0.0630928
0.262388
-0.0428235
0.270323
-0.0257749
0.27675
-0.0115354
0.281964
0.000233146
0.286286
0.00987931
0.289941
0.0178843
0.293184
0.0244501
0.296162
0.0298209
0.299076
0.034214
0.302022
0.037798
0.30516
0.040724
0.30854
0.0430925
0.312275
0.0449941
0.316349
0.0464635
0.320806
0.0475414
0.325027
0.0456331
0.32907
0.0435073
0.332768
0.0409422
0.336092
0.0380661
0.338867
0.0349677
0.341063
0.031753
0.342523
0.0285019
0.343243
0.0253079
0.343144
0.0222372
0.342284
0.0193567
0.340688
0.0167091
0.338467
0.0143231
0.335711
0.0123556
0.332539
0.0105813
0.329089
0.00905001
0.325457
0.00773557
0.321722
0.00703528
0.317978
0.00620037
0.314326
0.00571454
0.00524482
0.310779
0.167787
-0.25933
-0.134782
0.195948
-0.212813
0.219595
-0.170914
0.239196
-0.134522
0.255259
-0.103055
0.268304
-0.0761367
0.278819
-0.0533407
0.28726
-0.0342134
0.294026
-0.0183037
0.299476
-0.0052131
0.303901
0.00545133
0.307588
0.0142024
0.310751
0.0212835
0.313595
0.026982
0.316267
0.0315387
0.318915
0.0351568
0.321631
0.0380033
0.324521
0.0402102
0.327627
0.0418836
0.331003
0.0430951
0.334629
0.0439095
0.338048
0.0422232
0.341237
0.0403113
0.344139
0.0380493
0.346645
0.0355513
0.348716
0.0329045
0.350273
0.030188
0.351311
0.0274715
0.351792
0.0248193
0.35175
0.0222838
0.351197
0.0199073
0.350191
0.017719
0.348783
0.0157323
0.347036
0.0141052
0.345026
0.0125984
0.342816
0.0112606
0.340495
0.0100674
0.338066
0.00946395
0.335642
0.00863797
0.333224
0.00812821
0.00758578
0.330899
0.177315
-0.294892
-0.141762
0.207633
-0.243137
0.233081
-0.196363
0.254155
-0.155601
0.271409
-0.12031
0.285394
-0.0901238
0.296637
-0.0645838
0.305621
-0.0431978
0.312773
-0.0254577
0.318476
-0.0109152
0.323042
0.000884501
0.326765
0.0104813
0.329875
0.0181707
0.332585
0.0242751
0.335048
0.0290733
0.337412
0.032796
0.339772
0.0356409
0.342224
0.037762
0.344812
0.0392931
0.347584
0.0403278
0.350528
0.0409602
0.353255
0.039502
0.355771
0.0377901
0.358054
0.0357735
0.36003
0.0335693
0.361685
0.0312566
0.362962
0.028906
0.363868
0.026572
0.36438
0.0243054
0.364528
0.022143
0.364321
0.0201155
0.363803
0.0182419
0.363011
0.0165288
0.361986
0.0151339
0.360779
0.0138118
0.359431
0.0126106
0.357999
0.0115057
0.356482
0.0109753
0.354963
0.010164
0.353434
0.00964749
0.00906197
0.351964
0.187668
-0.333205
-0.149359
0.220319
-0.275795
0.247707
-0.223761
0.270381
-0.178273
0.288918
-0.138854
0.303928
-0.105129
0.315956
-0.0766195
0.32554
-0.0527746
0.333115
-0.033042
0.339112
-0.0169025
0.343841
-0.00385447
0.347636
0.00669607
0.350714
0.015083
0.35332
0.0216789
0.355593
0.0267903
0.35771
0.0306893
0.359746
0.0335943
0.361824
0.0356946
0.363966
0.0371403
0.366247
0.0380574
0.36864
0.038555
0.370822
0.037329
0.372798
0.0358014
0.374585
0.0339946
0.376123
0.0320189
0.377429
0.0299551
0.37846
0.0278635
0.379239
0.0257951
0.379743
0.02379
0.380006
0.0218793
0.380028
0.0200849
0.379845
0.0184211
0.379479
0.0168897
0.378958
0.0156486
0.378318
0.0144496
0.377581
0.0133397
0.376793
0.012295
0.375948
0.0118118
0.375104
0.0110104
0.374252
0.010488
0.00987174
0.373444
0.1989
-0.374503
-0.157612
0.234076
-0.310976
0.263573
-0.253263
0.287971
-0.202676
0.307909
-0.158793
0.324021
-0.121244
0.336916
-0.0895133
0.347143
-0.0630043
0.3552
-0.0410962
0.361508
-0.0232139
0.366446
-0.00878839
0.370321
0.00281776
0.373409
0.0119987
0.375922
0.0191629
0.378054
0.0246631
0.379942
0.0287988
0.381715
0.0318259
0.383452
0.033954
0.385233
0.0353646
0.387087
0.0362001
0.38905
0.0365971
0.390785
0.0355903
0.39236
0.0342317
0.393752
0.0325985
0.39497
0.0308057
0.395994
0.0289268
0.396837
0.0270233
0.397491
0.0251385
0.397973
0.0233109
0.398285
0.0215653
0.398451
0.0199218
0.398482
0.0183905
0.3984
0.0169722
0.398226
0.015824
0.397978
0.0146975
0.397682
0.0136398
0.397349
0.0126261
0.397
0.0121648
0.396646
0.0113617
0.39631
0.0108277
0.0101826
0.395994
0.211079
-0.419023
-0.166561
0.248989
-0.348897
0.280769
-0.285051
0.307044
-0.228954
0.328497
-0.18025
0.345816
-0.138564
0.35965
-0.103348
0.370591
-0.0739452
0.379169
-0.0496745
0.385842
-0.0298862
0.391007
-0.0139522
0.395001
-0.00117619
0.398112
0.00889007
0.400569
0.0167053
0.402575
0.0226603
0.404278
0.0270943
0.405815
0.0302922
0.407274
0.0324943
0.408738
0.0339042
0.410249
0.0346886
0.411849
0.0350015
0.413234
0.034204
0.414478
0.032992
0.415573
0.0315024
0.416534
0.0298496
0.417353
0.0281073
0.418047
0.0263345
0.418612
0.0245736
0.419066
0.0228603
0.419412
0.0212181
0.419671
0.0196651
0.41985
0.0182106
0.419967
0.0168546
0.420036
0.0157535
0.420069
0.0146611
0.420083
0.0136241
0.420086
0.0126179
0.420093
0.0121555
0.420111
0.011339
0.420153
0.010784
0.010108
0.420222
0.224266
-0.467044
-0.176251
0.265146
-0.389781
0.299407
-0.319318
0.327717
-0.257275
0.350826
-0.203357
0.369455
-0.157201
0.384322
-0.118209
0.396042
-0.0856726
0.405206
-0.0588308
0.412282
-0.0369693
0.417718
-0.0193808
0.421856
-0.00532087
0.425022
0.00573177
0.427444
0.014277
0.429354
0.0207574
0.430898
0.0255441
0.432236
0.0289618
0.43345
0.031274
0.434647
0.0327143
0.435863
0.0334669
0.437163
0.0337081
0.438255
0.0331066
0.439229
0.0320229
0.440079
0.0306482
0.440831
0.0291008
0.44148
0.0274536
0.442049
0.0257674
0.442534
0.024083
0.442957
0.0224369
0.443319
0.0208512
0.443637
0.0193443
0.443918
0.0179251
0.444174
0.016594
0.444418
0.0155061
0.444655
0.0144188
0.444898
0.0133784
0.445151
0.0123606
0.445426
0.0118785
0.445725
0.0110371
0.446055
0.0104519
0.00974103
0.446419
0.238544
-0.518854
-0.186734
0.282643
-0.433893
0.319598
-0.356279
0.35013
-0.287812
0.375034
-0.228266
0.395105
-0.177272
0.411092
-0.134198
0.423682
-0.0982613
0.433482
-0.0686328
0.441026
-0.0445108
0.446763
-0.0251201
0.451092
-0.00964709
0.45433
0.00249134
0.456755
0.0118545
0.458583
0.0189267
0.460005
0.0241256
0.461159
0.0278058
0.46217
0.030266
0.463121
0.0317612
0.46409
0.0325011
0.46512
0.0326766
0.465967
0.0322629
0.466699
0.03129
0.467342
0.0300084
0.467905
0.0285371
0.468409
0.0269532
0.468859
0.0253172
0.469272
0.0236728
0.469653
0.0220558
0.470016
0.0204902
0.470366
0.018994
0.470715
0.0175774
0.471068
0.0162411
0.471435
0.0151389
0.471821
0.0140328
0.472231
0.0129686
0.472668
0.0119229
0.473142
0.0114046
0.47365
0.0105282
0.474198
0.0099036
0.00915243
0.474786
0.253985
-0.574785
-0.198059
0.301589
-0.481494
0.341472
-0.396172
0.37442
-0.320767
0.401289
-0.255136
0.422928
-0.198916
0.440152
-0.15142
0.453692
-0.111804
0.464208
-0.0791472
0.472267
-0.0525705
0.478359
-0.0312119
0.482906
-0.0141943
0.486255
-0.000858644
0.488702
0.00940916
0.49048
0.0171471
0.491793
0.0228138
0.492794
0.0268037
0.493617
0.0294449
0.494356
0.0310208
0.495097
0.0317621
0.495893
0.0318793
0.496515
0.0316439
0.497035
0.0307686
0.497487
0.0295597
0.497882
0.0281409
0.498245
0.0265924
0.498583
0.0249779
0.498914
0.0233428
0.499244
0.0217251
0.499585
0.0201497
0.499942
0.0186363
0.500323
0.0171958
0.500732
0.0158304
0.501178
0.0146917
0.501662
0.0135474
0.502187
0.0124428
0.502753
0.011355
0.503371
0.0107867
0.504032
0.00986545
0.504743
0.00919311
0.00839582
0.505498
0.270689
-0.635182
-0.21029
0.322092
-0.532909
0.365165
-0.43925
0.400747
-0.356354
0.429755
-0.284153
0.453119
-0.222277
0.471693
-0.170001
0.486288
-0.126392
0.49759
-0.0904554
0.506233
-0.0612069
0.512722
-0.037708
0.517533
-0.0189982
0.521019
-0.00435134
0.523516
0.00691802
0.525262
0.0153954
0.526489
0.0215916
0.527352
0.025936
0.528006
0.0287944
0.528548
0.0304744
0.529081
0.0312333
0.529659
0.0312971
0.530072
0.031234
0.530393
0.0304441
0.530662
0.0292922
0.530894
0.0279057
0.531117
0.0263706
0.531338
0.0247532
0.531578
0.023103
0.531839
0.0214595
0.532138
0.0198505
0.532473
0.0182966
0.532857
0.0168109
0.533287
0.0153963
0.533776
0.0142026
0.534317
0.0130035
0.534915
0.0118441
0.535565
0.0107021
0.536281
0.0100715
0.537048
0.00909653
0.537873
0.00836861
0.00751952
0.538747
0.288742
-0.700444
-0.223485
0.344287
-0.588447
0.390827
-0.485802
0.429279
-0.394812
0.46063
-0.315509
0.485872
-0.247523
0.505941
-0.190069
0.521687
-0.142141
0.533873
-0.10264
0.543156
-0.070492
0.550108
-0.0446585
0.555212
-0.0241037
0.558879
-0.00801595
0.56144
0.00435411
0.563183
0.0136545
0.564331
0.0204419
0.565077
0.0251919
0.565567
0.0283026
0.565929
0.0301139
0.566256
0.0309051
0.56663
0.0309242
0.566834
0.0310281
0.566964
0.0303157
0.567046
0.0292069
0.567116
0.0278369
0.567188
0.026296
0.567284
0.0246563
0.567414
0.0229699
0.567593
0.0212803
0.567823
0.019617
0.568115
0.0180034
0.568469
0.0164537
0.568893
0.0149729
0.569384
0.0137078
0.569948
0.0124396
0.570577
0.0112124
0.571275
0.0100053
0.572043
0.00930088
0.572876
0.0082642
0.57377
0.0074728
0.00656649
0.574724
0.308262
-0.770982
-0.237718
0.368299
-0.648497
0.418624
-0.536124
0.460203
-0.4364
0.494112
-0.349425
0.521417
-0.274829
0.54312
-0.211776
0.560144
-0.159164
0.573303
-0.1158
0.58331
-0.0804984
0.590777
-0.0521257
0.596227
-0.0295538
0.600101
-0.0118896
0.60276
0.00169376
0.604512
0.0119034
0.6056
0.0193524
0.606233
0.0245598
0.60657
0.0279636
0.606751
0.0299337
0.606878
0.0307767
0.607043
0.0307601
0.607039
0.0310293
0.606968
0.0303875
0.60686
0.0293122
0.606752
0.0279451
0.606661
0.0263836
0.606613
0.0247044
0.606615
0.0229647
0.606684
0.0212109
0.606821
0.019476
0.607039
0.0177855
0.607334
0.0161558
0.607713
0.0145935
0.608175
0.0132427
0.608723
0.0118922
0.609347
0.0105856
0.610051
0.00930298
0.610835
0.00851421
0.611693
0.00740761
0.612618
0.00654513
0.00557568
0.613611
0.329351
-0.847281
-0.253058
0.394296
-0.71343
0.448731
-0.590571
0.493726
-0.481399
0.53043
-0.386135
0.559988
-0.304397
0.583495
-0.23528
0.601922
-0.177598
0.616166
-0.130038
0.626975
-0.0913133
0.635028
-0.0601722
0.640869
-0.0354008
0.644992
-0.0160069
0.647771
-0.00109152
0.649554
0.0101257
0.65059
0.0183107
0.651119
0.0240356
0.651302
0.0277754
0.651302
0.0299372
0.651221
0.0308526
0.65117
0.0308139
0.650948
0.0312473
0.650664
0.0306729
0.650349
0.0296226
0.650048
0.0282481
0.649774
0.0266526
0.649559
0.0249202
0.649406
0.0231119
0.649339
0.0212791
0.649353
0.0194572
0.649464
0.0176752
0.649664
0.015951
0.649965
0.0142938
0.650359
0.0128439
0.650853
0.0113993
0.651433
0.0100022
0.652103
0.00863457
0.652863
0.00775108
0.653706
0.00656685
0.654622
0.00562564
0.00458716
0.655613
0.35215
-0.929836
-0.269587
0.422425
-0.783719
0.481357
-0.649494
0.530072
-0.530126
0.569829
-0.425898
0.601863
-0.336435
0.62734
-0.26076
0.647325
-0.197582
0.662761
-0.145475
0.674475
-0.103026
0.683175
-0.0688735
0.689473
-0.0416969
0.693875
-0.0204106
0.696813
-0.00402747
0.698635
0.00830228
0.699638
0.0173095
0.700056
0.0236158
0.70009
0.027743
0.699892
0.0301324
0.699599
0.0311476
0.699308
0.0311028
0.698854
0.0317028
0.698331
0.0311931
0.697791
0.0301629
0.697264
0.0287717
0.696786
0.0271321
0.696368
0.0253337
0.696036
0.0234441
0.695792
0.0215182
0.695654
0.019596
0.695616
0.0177087
0.695691
0.0158772
0.695867
0.0141124
0.696161
0.0125516
0.696555
0.0110013
0.697056
0.00950369
0.697645
0.00804146
0.698345
0.00705358
0.699125
0.00578367
0.699998
0.00475628
0.00364225
0.700939
0.376778
-1.01923
-0.287385
0.452889
-0.859813
0.516709
-0.713328
0.569498
-0.582911
0.61259
-0.468998
0.647331
-0.371179
0.674976
-0.288407
0.696671
-0.219276
0.713431
-0.162236
0.726148
-0.115741
0.735581
-0.0783077
0.742391
-0.0485053
0.747124
-0.0251442
0.750245
-0.00714677
0.752131
0.00641516
0.753103
0.0163385
0.753416
0.0233013
0.753288
0.0278729
0.752884
0.0305337
0.752354
0.0316799
0.751803
0.0316516
0.751086
0.0324213
0.750298
0.0319774
0.7495
0.0309634
0.748718
0.0295492