/*--------------------------------*- C++ -*----------------------------------*\
| =========                 |                                                 |
| \\      /  F ield         | OpenFOAM: The Open Source CFD Toolbox           |
|  \\    /   O peration     | Version:  2312                                  |
|   \\  /    A nd           | Website:  www.openfoam.com                      |
|    \\/     M anipulation  |                                                 |
\*---------------------------------------------------------------------------*/
FoamFile
{
    version     2.0;
    format      ascii;
    arch        "LSB;label=32;scalar=64";
    class       volScalarField;
    location    "50";
    object      turbulenceProperties:nut;
}
// * * * * * * * * * * * * * * * * * * * * * * * * * * * * * * * * * * * * * //

dimensions      [0 2 -1 0 0 0 0];

internalField   nonuniform List<scalar> 
11040
(
8.02366e-06
1.51902e-05
3.66404e-05
8.1989e-05
0.000154024
0.000260676
0.000395345
0.000513755
0.000585538
0.000619399
0.000634639
0.000643019
0.000648731
0.000652585
0.000654556
0.000654513
0.000652357
0.000648098
0.000641926
0.000634255
0.000625295
0.000616272
0.000608811
0.000603018
0.000598038
0.000592816
0.000586743
0.000579941
0.00057295
0.000566447
0.000560907
0.000556184
0.000551574
0.000545774
0.000537253
0.000524847
0.000507754
0.000486081
0.000457772
0.000429332
0.000359991
5.62274e-06
5.73267e-06
6.03559e-06
6.79703e-06
8.70785e-06
1.45559e-05
3.64459e-05
8.49864e-05
0.000146906
0.000211161
0.000274578
0.000335386
0.000391895
0.000442243
0.000484886
0.000519199
0.000545619
0.000565544
0.000580812
0.000593248
0.000604536
0.000614614
0.000622362
0.000628426
0.000633646
0.000638508
0.000643336
0.000648041
0.000652552
0.000656832
0.000660804
0.000664744
0.00066873
0.000673103
0.000678153
0.000683994
0.000690834
0.000698539
0.000706631
0.000716201
0.000704808
6.13588e-06
6.17168e-06
6.14493e-06
6.14437e-06
6.20134e-06
6.29804e-06
6.45113e-06
6.79068e-06
7.65966e-06
9.82498e-06
1.42819e-05
2.41879e-05
4.34928e-05
7.36892e-05
0.000112091
0.000155729
0.000203248
0.000253795
0.000306347
0.0003596
0.000412501
0.000461492
0.000503754
0.000540239
0.000571939
0.000599782
0.000624631
0.000647273
0.000668297
0.000688156
0.000707151
0.000725456
0.000743186
0.000760468
0.00077746
0.000794321
0.000811408
0.000828996
0.000848086
0.000868156
0.000882849
6.09476e-06
6.09419e-06
6.11225e-06
6.14154e-06
6.17236e-06
6.20689e-06
6.25242e-06
6.3118e-06
6.38627e-06
6.47821e-06
6.60208e-06
6.74882e-06
6.86461e-06
7.04903e-06
7.5944e-06
9.01138e-06
1.22553e-05
1.91472e-05
3.27165e-05
5.5807e-05
8.92656e-05
0.000128609
0.000168871
0.000209737
0.000251358
0.000293563
0.000336038
0.000378502
0.000420559
0.000461912
0.00050242
0.000542047
0.000580919
0.000619385
0.00065778
0.000696384
0.000735418
0.00077594
0.000818692
0.000862972
0.000919861
6.12828e-06
6.09916e-06
6.09186e-06
6.0972e-06
6.08102e-06
6.05752e-06
6.05815e-06
6.06992e-06
6.08871e-06
6.11333e-06
6.14357e-06
6.17981e-06
6.22279e-06
6.26858e-06
6.28136e-06
6.23513e-06
6.12086e-06
5.95325e-06
5.77566e-06
5.67592e-06
5.87143e-06
6.68425e-06
8.53718e-06
1.19438e-05
1.77899e-05
2.716e-05
4.09672e-05
5.94838e-05
8.20951e-05
0.000107909
0.000136413
0.000167585
0.000201793
0.000239803
0.00028239
0.000330359
0.000384128
0.000446031
0.00051742
0.000595848
0.000719427
6.12065e-06
6.0884e-06
6.08269e-06
6.08613e-06
6.09323e-06
6.10077e-06
6.10726e-06
6.11317e-06
6.11985e-06
6.12885e-06
6.14097e-06
6.15665e-06
6.17626e-06
6.2003e-06
6.228e-06
6.25638e-06
6.27942e-06
6.28778e-06
6.26528e-06
6.19089e-06
6.018e-06
5.73758e-06
5.44178e-06
5.16953e-06
4.92704e-06
4.72609e-06
4.57878e-06
4.50819e-06
4.55805e-06
4.8017e-06
5.36195e-06
6.46081e-06
8.5171e-06
1.23964e-05
1.97364e-05
3.32413e-05
5.56491e-05
8.93432e-05
0.000136479
0.000191692
0.000308524
6.11488e-06
6.08927e-06
6.08117e-06
6.08108e-06
6.08351e-06
6.08571e-06
6.08503e-06
6.07934e-06
6.07197e-06
6.06938e-06
6.07006e-06
6.07275e-06
6.07703e-06
6.08288e-06
6.09034e-06
6.09927e-06
6.10979e-06
6.12197e-06
6.13556e-06
6.14977e-06
6.16113e-06
6.16031e-06
6.14524e-06
6.11767e-06
6.07624e-06
6.01975e-06
5.94457e-06
5.84373e-06
5.70743e-06
5.5249e-06
5.28543e-06
4.98005e-06
4.6046e-06
4.15717e-06
3.65497e-06
3.13787e-06
2.70933e-06
2.42898e-06
3.08228e-06
4.01795e-06
2.84668e-05
6.10862e-06
6.08834e-06
6.07968e-06
6.07835e-06
6.07971e-06
6.08197e-06
6.08419e-06
6.08617e-06
6.0879e-06
6.08946e-06
6.09116e-06
6.09329e-06
6.09607e-06
6.0997e-06
6.10442e-06
6.11049e-06
6.11782e-06
6.1261e-06
6.13528e-06
6.14526e-06
6.1565e-06
6.16936e-06
6.18276e-06
6.19624e-06
6.20953e-06
6.22234e-06
6.23436e-06
6.24509e-06
6.25352e-06
6.25772e-06
6.2542e-06
6.23675e-06
6.19573e-06
6.11348e-06
5.96365e-06
5.70013e-06
5.2839e-06
4.58475e-06
3.67386e-06
2.38649e-06
1.33387e-06
6.10296e-06
6.08634e-06
6.07793e-06
6.07674e-06
6.07734e-06
6.07856e-06
6.07989e-06
6.08097e-06
6.08165e-06
6.08016e-06
6.0781e-06
6.07542e-06
6.07245e-06
6.06948e-06
6.06593e-06
6.06466e-06
6.06441e-06
6.06471e-06
6.06537e-06
6.06642e-06
6.06775e-06
6.06909e-06
6.07039e-06
6.07142e-06
6.07206e-06
6.07255e-06
6.07209e-06
6.06851e-06
6.06463e-06
6.06183e-06
6.06072e-06
6.06193e-06
6.06598e-06
6.07369e-06
6.08431e-06
6.09932e-06
6.10617e-06
6.09116e-06
5.94775e-06
5.7658e-06
4.51326e-06
6.09765e-06
6.08405e-06
6.07715e-06
6.07612e-06
6.07631e-06
6.07695e-06
6.07784e-06
6.07882e-06
6.0798e-06
6.08069e-06
6.08155e-06
6.08242e-06
6.08335e-06
6.08438e-06
6.08559e-06
6.08703e-06
6.08878e-06
6.09094e-06
6.09349e-06
6.09623e-06
6.09913e-06
6.10221e-06
6.10544e-06
6.10889e-06
6.11251e-06
6.11629e-06
6.12018e-06
6.1241e-06
6.12795e-06
6.1316e-06
6.13493e-06
6.13782e-06
6.14028e-06
6.14249e-06
6.14494e-06
6.14933e-06
6.15632e-06
6.17483e-06
6.19322e-06
6.26556e-06
6.23124e-06
6.09287e-06
6.08162e-06
6.07653e-06
6.0755e-06
6.07548e-06
6.07582e-06
6.07635e-06
6.07699e-06
6.07769e-06
6.07834e-06
6.07891e-06
6.07939e-06
6.07977e-06
6.07998e-06
6.07984e-06
6.0789e-06
6.0778e-06
6.07652e-06
6.07508e-06
6.07355e-06
6.07203e-06
6.07058e-06
6.06918e-06
6.06786e-06
6.06675e-06
6.06591e-06
6.06505e-06
6.06469e-06
6.06608e-06
6.06831e-06
6.07101e-06
6.07408e-06
6.07749e-06
6.08123e-06
6.08531e-06
6.08976e-06
6.09466e-06
6.10077e-06
6.11023e-06
6.12249e-06
6.17126e-06
6.08871e-06
6.07934e-06
6.07549e-06
6.07454e-06
6.07454e-06
6.07485e-06
6.07529e-06
6.07581e-06
6.0764e-06
6.07701e-06
6.07762e-06
6.07825e-06
6.07889e-06
6.07956e-06
6.08025e-06
6.08099e-06
6.08181e-06
6.08273e-06
6.0838e-06
6.085e-06
6.08644e-06
6.08805e-06
6.08972e-06
6.09148e-06
6.09331e-06
6.09521e-06
6.09715e-06
6.09915e-06
6.10118e-06
6.10323e-06
6.10527e-06
6.10726e-06
6.10917e-06
6.11094e-06
6.11258e-06
6.11404e-06
6.11533e-06
6.11643e-06
6.11754e-06
6.1176e-06
6.1214e-06
6.0852e-06
6.07743e-06
6.07428e-06
6.07348e-06
6.07354e-06
6.07389e-06
6.07435e-06
6.07487e-06
6.07542e-06
6.07597e-06
6.07651e-06
6.07705e-06
6.07759e-06
6.07813e-06
6.07866e-06
6.07919e-06
6.07973e-06
6.08028e-06
6.08086e-06
6.08145e-06
6.08212e-06
6.08288e-06
6.08367e-06
6.08449e-06
6.08533e-06
6.0862e-06
6.0871e-06
6.08805e-06
6.08905e-06
6.0901e-06
6.09124e-06
6.09247e-06
6.09383e-06
6.09534e-06
6.09703e-06
6.09892e-06
6.101e-06
6.10338e-06
6.10578e-06
6.10871e-06
6.11049e-06
6.08232e-06
6.07598e-06
6.07333e-06
6.0726e-06
6.07264e-06
6.07298e-06
6.07346e-06
6.074e-06
6.07456e-06
6.07513e-06
6.07568e-06
6.07623e-06
6.07677e-06
6.07732e-06
6.07787e-06
6.07844e-06
6.07904e-06
6.07968e-06
6.08037e-06
6.08112e-06
6.08197e-06
6.08293e-06
6.08392e-06
6.08495e-06
6.08603e-06
6.08715e-06
6.08834e-06
6.08959e-06
6.0909e-06
6.09227e-06
6.09366e-06
6.09505e-06
6.09642e-06
6.09773e-06
6.099e-06
6.10023e-06
6.10143e-06
6.10266e-06
6.10382e-06
6.10541e-06
6.10625e-06
6.08004e-06
6.07503e-06
6.07277e-06
6.07205e-06
6.07199e-06
6.07222e-06
6.07261e-06
6.0731e-06
6.07366e-06
6.07424e-06
6.07481e-06
6.07538e-06
6.07593e-06
6.07648e-06
6.07701e-06
6.07755e-06
6.07809e-06
6.07866e-06
6.07925e-06
6.07988e-06
6.08057e-06
6.08133e-06
6.0821e-06
6.08288e-06
6.08368e-06
6.08452e-06
6.08539e-06
6.08631e-06
6.08728e-06
6.0883e-06
6.08936e-06
6.09046e-06
6.0916e-06
6.09277e-06
6.09398e-06
6.09523e-06
6.09652e-06
6.09786e-06
6.09913e-06
6.1008e-06
6.10175e-06
6.07829e-06
6.0744e-06
6.07253e-06
6.07187e-06
6.07169e-06
6.07173e-06
6.07193e-06
6.07227e-06
6.07271e-06
6.07324e-06
6.07379e-06
6.07437e-06
6.07495e-06
6.07552e-06
6.07608e-06
6.07663e-06
6.07719e-06
6.07775e-06
6.07834e-06
6.07896e-06
6.07964e-06
6.08038e-06
6.08113e-06
6.0819e-06
6.08269e-06
6.0835e-06
6.08434e-06
6.08521e-06
6.08612e-06
6.08706e-06
6.08803e-06
6.08904e-06
6.09007e-06
6.09113e-06
6.0922e-06
6.0933e-06
6.09442e-06
6.09556e-06
6.09663e-06
6.09792e-06
6.09876e-06
6.07692e-06
6.07381e-06
6.07257e-06
6.07209e-06
6.07182e-06
6.07164e-06
6.07157e-06
6.07166e-06
6.07188e-06
6.07223e-06
6.07266e-06
6.07314e-06
6.07365e-06
6.07416e-06
6.07467e-06
6.07516e-06
6.07564e-06
6.07611e-06
6.07657e-06
6.07704e-06
6.07752e-06
6.07803e-06
6.07856e-06
6.07909e-06
6.07964e-06
6.08021e-06
6.08081e-06
6.08143e-06
6.08208e-06
6.08276e-06
6.08346e-06
6.08418e-06
6.08492e-06
6.08568e-06
6.08645e-06
6.08723e-06
6.08803e-06
6.08887e-06
6.08969e-06
6.09069e-06
6.09151e-06
6.07578e-06
6.07361e-06
6.07287e-06
6.07258e-06
6.0723e-06
6.07199e-06
6.07172e-06
6.07155e-06
6.07152e-06
6.07162e-06
6.07184e-06
6.07216e-06
6.07253e-06
6.07295e-06
6.07338e-06
6.07382e-06
6.07423e-06
6.07463e-06
6.07501e-06
6.07537e-06
6.07573e-06
6.07608e-06
6.07642e-06
6.07676e-06
6.07711e-06
6.07748e-06
6.07786e-06
6.07827e-06
6.0787e-06
6.07916e-06
6.07965e-06
6.08015e-06
6.08067e-06
6.08121e-06
6.08177e-06
6.08233e-06
6.0829e-06
6.08348e-06
6.08404e-06
6.08468e-06
6.08524e-06
6.07485e-06
6.07336e-06
6.07303e-06
6.07296e-06
6.07281e-06
6.07254e-06
6.07221e-06
6.07191e-06
6.07168e-06
6.07156e-06
6.07156e-06
6.07168e-06
6.0719e-06
6.07219e-06
6.07255e-06
6.07293e-06
6.07332e-06
6.07372e-06
6.0741e-06
6.07447e-06
6.07482e-06
6.07515e-06
6.07546e-06
6.07576e-06
6.07604e-06
6.07632e-06
6.0766e-06
6.0769e-06
6.07722e-06
6.07756e-06
6.07791e-06
6.07829e-06
6.07869e-06
6.07909e-06
6.07952e-06
6.07996e-06
6.08041e-06
6.08087e-06
6.08132e-06
6.0818e-06
6.08226e-06
6.07408e-06
6.0729e-06
6.07277e-06
6.07291e-06
6.07298e-06
6.0729e-06
6.07269e-06
6.0724e-06
6.07211e-06
6.07186e-06
6.07168e-06
6.07161e-06
6.07163e-06
6.07175e-06
6.07196e-06
6.07224e-06
6.07256e-06
6.07291e-06
6.07327e-06
6.07363e-06
6.07398e-06
6.07432e-06
6.07464e-06
6.07493e-06
6.07521e-06
6.07546e-06
6.07571e-06
6.07596e-06
6.07621e-06
6.07647e-06
6.07675e-06
6.07704e-06
6.07734e-06
6.07766e-06
6.07799e-06
6.07833e-06
6.07868e-06
6.07904e-06
6.07941e-06
6.07979e-06
6.08014e-06
6.07345e-06
6.07231e-06
6.07218e-06
6.07242e-06
6.07269e-06
6.07285e-06
6.07286e-06
6.07275e-06
6.07254e-06
6.0723e-06
6.07205e-06
6.07185e-06
6.07172e-06
6.07167e-06
6.07171e-06
6.07184e-06
6.07203e-06
6.07229e-06
6.07258e-06
6.07289e-06
6.07321e-06
6.07354e-06
6.07385e-06
6.07415e-06
6.07442e-06
6.07467e-06
6.07491e-06
6.07513e-06
6.07534e-06
6.07556e-06
6.07577e-06
6.07599e-06
6.07622e-06
6.07646e-06
6.0767e-06
6.07696e-06
6.07723e-06
6.07751e-06
6.07779e-06
6.07808e-06
6.07838e-06
6.073e-06
6.07181e-06
6.07154e-06
6.07171e-06
6.07204e-06
6.07236e-06
6.07259e-06
6.07271e-06
6.0727e-06
6.07259e-06
6.07242e-06
6.07221e-06
6.07202e-06
6.07187e-06
6.07178e-06
6.07176e-06
6.07181e-06
6.07193e-06
6.07212e-06
6.07234e-06
6.0726e-06
6.07288e-06
6.07317e-06
6.07345e-06
6.07372e-06
6.07398e-06
6.07421e-06
6.07442e-06
6.07462e-06
6.07481e-06
6.07498e-06
6.07516e-06
6.07534e-06
6.07551e-06
6.0757e-06
6.07588e-06
6.07608e-06
6.07629e-06
6.07651e-06
6.07671e-06
6.07697e-06
6.07275e-06
6.07163e-06
6.07115e-06
6.0711e-06
6.0713e-06
6.07161e-06
6.07196e-06
6.07225e-06
6.07245e-06
6.07255e-06
6.07254e-06
6.07245e-06
6.07231e-06
6.07216e-06
6.07201e-06
6.0719e-06
6.07184e-06
6.07184e-06
6.0719e-06
6.07202e-06
6.07218e-06
6.07238e-06
6.07261e-06
6.07286e-06
6.07311e-06
6.07335e-06
6.07357e-06
6.07378e-06
6.07398e-06
6.07416e-06
6.07432e-06
6.07448e-06
6.07463e-06
6.07477e-06
6.07492e-06
6.07506e-06
6.07522e-06
6.07537e-06
6.07554e-06
6.07569e-06
6.07589e-06
6.0727e-06
6.07178e-06
6.07115e-06
6.07083e-06
6.07078e-06
6.07094e-06
6.07122e-06
6.07156e-06
6.07189e-06
6.07215e-06
6.07232e-06
6.0724e-06
6.0724e-06
6.07234e-06
6.07224e-06
6.07212e-06
6.07202e-06
6.07194e-06
6.07191e-06
6.07192e-06
6.07198e-06
6.07209e-06
6.07224e-06
6.07242e-06
6.07262e-06
6.07282e-06
6.07302e-06
6.07322e-06
6.0734e-06
6.07357e-06
6.07373e-06
6.07387e-06
6.07401e-06
6.07413e-06
6.07425e-06
6.07436e-06
6.07448e-06
6.07459e-06
6.07472e-06
6.07482e-06
6.07497e-06
6.07278e-06
6.07212e-06
6.07148e-06
6.071e-06
6.07072e-06
6.07064e-06
6.07074e-06
6.07096e-06
6.07126e-06
6.07157e-06
6.07185e-06
6.07207e-06
6.07222e-06
6.07229e-06
6.0723e-06
6.07225e-06
6.07218e-06
6.0721e-06
6.07203e-06
6.07198e-06
6.07196e-06
6.07198e-06
6.07205e-06
6.07215e-06
6.07228e-06
6.07242e-06
6.07258e-06
6.07274e-06
6.0729e-06
6.07306e-06
6.0732e-06
6.07334e-06
6.07346e-06
6.07357e-06
6.07368e-06
6.07377e-06
6.07387e-06
6.07396e-06
6.07406e-06
6.07412e-06
6.07424e-06
6.07288e-06
6.07249e-06
6.07201e-06
6.07156e-06
6.07119e-06
6.0709e-06
6.07076e-06
6.07076e-06
6.07088e-06
6.07109e-06
6.07135e-06
6.07161e-06
6.07184e-06
6.07202e-06
6.07214e-06
6.07221e-06
6.07222e-06
6.07219e-06
6.07215e-06
6.07209e-06
6.07204e-06
6.07201e-06
6.072e-06
6.07203e-06
6.07209e-06
6.07217e-06
6.07227e-06
6.07239e-06
6.07251e-06
6.07263e-06
6.07276e-06
6.07287e-06
6.07298e-06
6.07309e-06
6.07318e-06
6.07327e-06
6.07335e-06
6.07342e-06
6.07349e-06
6.07354e-06
6.07362e-06
6.07293e-06
6.07278e-06
6.07255e-06
6.07231e-06
6.072e-06
6.07167e-06
6.07134e-06
6.0711e-06
6.07098e-06
6.07098e-06
6.07108e-06
6.07125e-06
6.07146e-06
6.07166e-06
6.07185e-06
6.072e-06
6.0721e-06
6.07215e-06
6.07217e-06
6.07215e-06
6.07211e-06
6.07207e-06
6.07204e-06
6.07203e-06
6.07203e-06
6.07206e-06
6.0721e-06
6.07216e-06
6.07223e-06
6.07231e-06
6.0724e-06
6.07249e-06
6.07258e-06
6.07267e-06
6.07275e-06
6.07282e-06
6.07289e-06
6.07295e-06
6.07302e-06
6.07305e-06
6.07311e-06
6.07287e-06
6.07289e-06
6.0729e-06
6.07287e-06
6.07274e-06
6.07251e-06
6.07221e-06
6.07188e-06
6.07158e-06
6.07135e-06
6.07124e-06
6.07123e-06
6.07129e-06
6.07142e-06
6.07157e-06
6.07173e-06
6.07187e-06
6.07199e-06
6.07207e-06
6.07211e-06
6.07212e-06
6.07211e-06
6.07209e-06
6.07207e-06
6.07205e-06
6.07204e-06
6.07204e-06
6.07205e-06
6.07207e-06
6.07211e-06
6.07216e-06
6.07221e-06
6.07227e-06
6.07233e-06
6.07239e-06
6.07245e-06
6.0725e-06
6.07255e-06
6.0726e-06
6.07263e-06
6.07267e-06
6.07271e-06
6.07278e-06
6.07293e-06
6.07309e-06
6.07317e-06
6.07312e-06
6.07295e-06
6.0727e-06
6.0724e-06
6.07209e-06
6.07182e-06
6.0716e-06
6.07148e-06
6.07145e-06
6.07148e-06
6.07157e-06
6.07168e-06
6.0718e-06
6.07191e-06
6.07199e-06
6.07205e-06
6.07209e-06
6.0721e-06
6.0721e-06
6.07208e-06
6.07206e-06
6.07204e-06
6.07202e-06
6.07201e-06
6.07201e-06
6.07201e-06
6.07203e-06
6.07205e-06
6.07208e-06
6.07211e-06
6.07215e-06
6.07219e-06
6.07222e-06
6.07226e-06
6.07227e-06
6.0723e-06
6.07249e-06
6.07249e-06
6.07269e-06
6.07297e-06
6.07322e-06
6.07336e-06
6.07337e-06
6.07327e-06
6.07308e-06
6.07284e-06
6.07256e-06
6.07228e-06
6.07202e-06
6.07182e-06
6.07169e-06
6.07164e-06
6.07166e-06
6.07171e-06
6.07179e-06
6.07188e-06
6.07195e-06
6.07202e-06
6.07206e-06
6.07209e-06
6.0721e-06
6.0721e-06
6.07208e-06
6.07205e-06
6.07202e-06
6.07199e-06
6.07196e-06
6.07194e-06
6.07193e-06
6.07193e-06
6.07193e-06
6.07194e-06
6.07195e-06
6.07196e-06
6.07198e-06
6.07199e-06
6.072e-06
6.07228e-06
6.07215e-06
6.07228e-06
6.07257e-06
6.0729e-06
6.07318e-06
6.07337e-06
6.07346e-06
6.07344e-06
6.07333e-06
6.07315e-06
6.07292e-06
6.07267e-06
6.07243e-06
6.0722e-06
6.07202e-06
6.07189e-06
6.07183e-06
6.07183e-06
6.07186e-06
6.07191e-06
6.07197e-06
6.07203e-06
6.07209e-06
6.07212e-06
6.07214e-06
6.07214e-06
6.07212e-06
6.07209e-06
6.07204e-06
6.072e-06
6.07195e-06
6.07191e-06
6.07188e-06
6.07185e-06
6.07183e-06
6.07181e-06
6.0718e-06
6.07179e-06
6.07178e-06
6.07177e-06
6.07213e-06
6.07188e-06
6.07187e-06
6.07207e-06
6.07237e-06
6.07269e-06
6.07299e-06
6.07323e-06
6.07338e-06
6.07345e-06
6.07343e-06
6.07333e-06
6.07317e-06
6.07296e-06
6.07275e-06
6.07254e-06
6.07235e-06
6.0722e-06
6.07208e-06
6.07201e-06
6.07198e-06
6.07201e-06
6.07205e-06
6.07211e-06
6.07216e-06
6.07219e-06
6.07221e-06
6.07221e-06
6.07219e-06
6.07216e-06
6.07212e-06
6.07206e-06
6.072e-06
6.07195e-06
6.07189e-06
6.07184e-06
6.07179e-06
6.07175e-06
6.07171e-06
6.07168e-06
6.07165e-06
6.07207e-06
6.07177e-06
6.07163e-06
6.07167e-06
6.07185e-06
6.07212e-06
6.07241e-06
6.07271e-06
6.07298e-06
6.07319e-06
6.07333e-06
6.07339e-06
6.07337e-06
6.07328e-06
6.07314e-06
6.07297e-06
6.07279e-06
6.07261e-06
6.07245e-06
6.07233e-06
6.07224e-06
6.07219e-06
6.07216e-06
6.07217e-06
6.0722e-06
6.07224e-06
6.07227e-06
6.0723e-06
6.07231e-06
6.07231e-06
6.07228e-06
6.07224e-06
6.07218e-06
6.07212e-06
6.07205e-06
6.07198e-06
6.07191e-06
6.07184e-06
6.07178e-06
6.07172e-06
6.07167e-06
6.07207e-06
6.07182e-06
6.07162e-06
6.07153e-06
6.07155e-06
6.07168e-06
6.07188e-06
6.07213e-06
6.07241e-06
6.07268e-06
6.07293e-06
6.07312e-06
6.07324e-06
6.0733e-06
6.07329e-06
6.07322e-06
6.0731e-06
6.07296e-06
6.07281e-06
6.07266e-06
6.07254e-06
6.07244e-06
6.07237e-06
6.07232e-06
6.07231e-06
6.07231e-06
6.07233e-06
6.07235e-06
6.07238e-06
6.0724e-06
6.07241e-06
6.07241e-06
6.07239e-06
6.07235e-06
6.0723e-06
6.07224e-06
6.07217e-06
6.07209e-06
6.07202e-06
6.07195e-06
6.07191e-06
6.0721e-06
6.07198e-06
6.0718e-06
6.07165e-06
6.07156e-06
6.07153e-06
6.07159e-06
6.07172e-06
6.07191e-06
6.07214e-06
6.0724e-06
6.07264e-06
6.07286e-06
6.07303e-06
6.07314e-06
6.07319e-06
6.07319e-06
6.07313e-06
6.07304e-06
6.07293e-06
6.07281e-06
6.0727e-06
6.07259e-06
6.07251e-06
6.07245e-06
6.07242e-06
6.07241e-06
6.07242e-06
6.07245e-06
6.07248e-06
6.0725e-06
6.07253e-06
6.07254e-06
6.07253e-06
6.07251e-06
6.07248e-06
6.07244e-06
6.07239e-06
6.07233e-06
6.07227e-06
6.07223e-06
6.07209e-06
6.07214e-06
6.07207e-06
6.07194e-06
6.0718e-06
6.07168e-06
6.0716e-06
6.07159e-06
6.07165e-06
6.07177e-06
6.07194e-06
6.07215e-06
6.07238e-06
6.07259e-06
6.07278e-06
6.07293e-06
6.07303e-06
6.07308e-06
6.07308e-06
6.07304e-06
6.07297e-06
6.07288e-06
6.07279e-06
6.07269e-06
6.07261e-06
6.07255e-06
6.07251e-06
6.07249e-06
6.07249e-06
6.07251e-06
6.07253e-06
6.07256e-06
6.07259e-06
6.07261e-06
6.07262e-06
6.07262e-06
6.07261e-06
6.07259e-06
6.07255e-06
6.07251e-06
6.07249e-06
6.072e-06
6.07219e-06
6.07225e-06
6.07221e-06
6.07211e-06
6.07198e-06
6.07184e-06
6.07173e-06
6.07167e-06
6.07166e-06
6.07171e-06
6.07182e-06
6.07197e-06
6.07216e-06
6.07235e-06
6.07253e-06
6.07269e-06
6.07282e-06
6.0729e-06
6.07295e-06
6.07295e-06
6.07292e-06
6.07287e-06
6.0728e-06
6.07272e-06
6.07265e-06
6.07259e-06
6.07255e-06
6.07253e-06
6.07252e-06
6.07253e-06
6.07255e-06
6.07257e-06
6.0726e-06
6.07263e-06
6.07265e-06
6.07266e-06
6.07266e-06
6.07265e-06
6.07264e-06
6.07263e-06
6.07181e-06
6.07206e-06
6.07223e-06
6.0723e-06
6.07229e-06
6.07222e-06
6.07211e-06
6.07198e-06
6.07186e-06
6.07176e-06
6.0717e-06
6.0717e-06
6.07175e-06
6.07184e-06
6.07197e-06
6.07213e-06
6.07229e-06
6.07244e-06
6.07257e-06
6.07268e-06
6.07275e-06
6.07279e-06
6.07279e-06
6.07277e-06
6.07273e-06
6.07267e-06
6.07262e-06
6.07257e-06
6.07253e-06
6.07251e-06
6.07249e-06
6.0725e-06
6.07251e-06
6.07253e-06
6.07256e-06
6.07258e-06
6.07261e-06
6.07263e-06
6.07264e-06
6.07265e-06
6.07265e-06
6.07152e-06
6.07176e-06
6.07196e-06
6.07211e-06
6.0722e-06
6.07223e-06
6.0722e-06
6.07213e-06
6.07202e-06
6.07191e-06
6.07181e-06
6.07173e-06
6.07168e-06
6.07168e-06
6.07173e-06
6.07181e-06
6.07192e-06
6.07205e-06
6.07218e-06
6.07231e-06
6.07242e-06
6.0725e-06
6.07256e-06
6.07259e-06
6.07259e-06
6.07257e-06
6.07254e-06
6.07251e-06
6.07247e-06
6.07244e-06
6.07242e-06
6.0724e-06
6.0724e-06
6.07241e-06
6.07243e-06
6.07245e-06
6.07248e-06
6.0725e-06
6.07253e-06
6.07255e-06
6.07257e-06
6.07119e-06
6.07135e-06
6.07152e-06
6.07168e-06
6.07182e-06
6.07193e-06
6.072e-06
6.07202e-06
6.07199e-06
6.07193e-06
6.07185e-06
6.07176e-06
6.07168e-06
6.07162e-06
6.07159e-06
6.07159e-06
6.07163e-06
6.0717e-06
6.0718e-06
6.0719e-06
6.07201e-06
6.07211e-06
6.0722e-06
6.07226e-06
6.07231e-06
6.07233e-06
6.07234e-06
6.07233e-06
6.07231e-06
6.07228e-06
6.07226e-06
6.07224e-06
6.07223e-06
6.07223e-06
6.07223e-06
6.07225e-06
6.07227e-06
6.07229e-06
6.07232e-06
6.07235e-06
6.07238e-06
6.07084e-06
6.07091e-06
6.07101e-06
6.07113e-06
6.07126e-06
6.0714e-06
6.07152e-06
6.07161e-06
6.07167e-06
6.07169e-06
6.07168e-06
6.07164e-06
6.07158e-06
6.07151e-06
6.07146e-06
6.07142e-06
6.0714e-06
6.07141e-06
6.07145e-06
6.07151e-06
6.07159e-06
6.07167e-06
6.07176e-06
6.07184e-06
6.07191e-06
6.07196e-06
6.07199e-06
6.07201e-06
6.07202e-06
6.07201e-06
6.072e-06
6.07199e-06
6.07197e-06
6.07197e-06
6.07196e-06
6.07197e-06
6.07198e-06
6.072e-06
6.07202e-06
6.07205e-06
6.07208e-06
6.0705e-06
6.07051e-06
6.07053e-06
6.07059e-06
6.07067e-06
6.07078e-06
6.0709e-06
6.07102e-06
6.07112e-06
6.07121e-06
6.07126e-06
6.07129e-06
6.07128e-06
6.07125e-06
6.07122e-06
6.07117e-06
6.07114e-06
6.07111e-06
6.07111e-06
6.07113e-06
6.07116e-06
6.07121e-06
6.07128e-06
6.07135e-06
6.07141e-06
6.07147e-06
6.07153e-06
6.07157e-06
6.07159e-06
6.07161e-06
6.07162e-06
6.07161e-06
6.07161e-06
6.0716e-06
6.0716e-06
6.0716e-06
6.07161e-06
6.07162e-06
6.07164e-06
6.07166e-06
6.07169e-06
6.07017e-06
6.07017e-06
6.07015e-06
6.07015e-06
6.07017e-06
6.07022e-06
6.07029e-06
6.07038e-06
6.07048e-06
6.07058e-06
6.07067e-06
6.07074e-06
6.07078e-06
6.0708e-06
6.0708e-06
6.07078e-06
6.07076e-06
6.07073e-06
6.07071e-06
6.0707e-06
6.0707e-06
6.07072e-06
6.07075e-06
6.07079e-06
6.07085e-06
6.0709e-06
6.07095e-06
6.071e-06
6.07104e-06
6.07107e-06
6.07109e-06
6.0711e-06
6.07111e-06
6.07111e-06
6.07111e-06
6.07111e-06
6.07111e-06
6.07112e-06
6.07113e-06
6.07115e-06
6.07117e-06
6.06984e-06
6.06985e-06
6.06983e-06
6.0698e-06
6.06978e-06
6.06978e-06
6.06979e-06
6.06983e-06
6.06988e-06
6.06995e-06
6.07002e-06
6.07009e-06
6.07015e-06
6.0702e-06
6.07023e-06
6.07024e-06
6.07023e-06
6.07022e-06
6.07019e-06
6.07017e-06
6.07016e-06
6.07015e-06
6.07015e-06
6.07017e-06
6.0702e-06
6.07023e-06
6.07027e-06
6.07031e-06
6.07035e-06
6.07039e-06
6.07042e-06
6.07044e-06
6.07046e-06
6.07047e-06
6.07048e-06
6.07049e-06
6.07049e-06
6.0705e-06
6.07051e-06
6.07053e-06
6.07054e-06
6.06946e-06
6.06951e-06
6.0695e-06
6.06948e-06
6.06945e-06
6.06942e-06
6.06939e-06
6.06938e-06
6.06939e-06
6.0694e-06
6.06943e-06
6.06947e-06
6.06951e-06
6.06954e-06
6.06957e-06
6.06958e-06
6.06959e-06
6.06958e-06
6.06956e-06
6.06954e-06
6.06951e-06
6.06948e-06
6.06946e-06
6.06945e-06
6.06945e-06
6.06946e-06
6.06948e-06
6.0695e-06
6.06953e-06
6.06956e-06
6.06959e-06
6.06961e-06
6.06963e-06
6.06965e-06
6.06966e-06
6.06967e-06
6.06967e-06
6.06967e-06
6.06968e-06
6.06968e-06
6.06969e-06
6.06903e-06
6.06908e-06
6.0691e-06
6.06909e-06
6.06907e-06
6.06904e-06
6.06901e-06
6.06898e-06
6.06895e-06
6.06893e-06
6.06892e-06
6.06891e-06
6.06891e-06
6.06891e-06
6.06891e-06
6.06891e-06
6.0689e-06
6.06888e-06
6.06886e-06
6.06882e-06
6.06878e-06
6.06874e-06
6.0687e-06
6.06867e-06
6.06864e-06
6.06863e-06
6.06862e-06
6.06863e-06
6.06864e-06
6.06866e-06
6.06869e-06
6.06872e-06
6.06875e-06
6.06878e-06
6.06881e-06
6.06883e-06
6.06886e-06
6.06889e-06
6.06891e-06
6.06894e-06
6.06896e-06
6.06852e-06
6.06855e-06
6.06857e-06
6.06858e-06
6.06857e-06
6.06856e-06
6.06855e-06
6.06852e-06
6.0685e-06
6.06847e-06
6.06844e-06
6.0684e-06
6.06837e-06
6.06834e-06
6.06831e-06
6.06827e-06
6.06824e-06
6.06821e-06
6.06818e-06
6.06816e-06
6.06814e-06
6.06813e-06
6.06812e-06
6.06812e-06
6.06812e-06
6.06813e-06
6.06814e-06
6.06816e-06
6.06818e-06
6.0682e-06
6.06823e-06
6.06826e-06
6.06829e-06
6.06832e-06
6.06834e-06
6.06837e-06
6.06839e-06
6.0684e-06
6.06842e-06
6.06842e-06
6.06843e-06
6.06794e-06
6.06795e-06
6.06796e-06
6.06796e-06
6.06797e-06
6.06797e-06
6.06797e-06
6.06797e-06
6.06796e-06
6.06795e-06
6.06794e-06
6.06792e-06
6.06789e-06
6.06786e-06
6.06782e-06
6.06776e-06
6.06774e-06
6.06775e-06
6.06778e-06
6.06783e-06
6.06789e-06
6.06797e-06
6.06805e-06
6.06815e-06
6.06824e-06
6.06834e-06
6.06844e-06
6.06854e-06
6.06864e-06
6.06872e-06
6.06881e-06
6.06888e-06
6.06894e-06
6.06899e-06
6.06904e-06
6.06907e-06
6.0691e-06
6.06911e-06
6.06911e-06
6.06912e-06
6.06911e-06
0.000551648
0.000773356
0.000929749
0.00103417
0.00110799
0.00116271
0.00120655
0.00124353
0.00127455
0.00129997
0.0013203
0.00133672
0.00135056
0.00136245
0.00137269
0.00138136
0.00138981
0.00140282
0.00142822
0.00147649
0.00155459
0.00166102
0.00178773
0.00192177
0.00205066
0.00216564
0.00226285
0.00234116
0.00240067
0.00244221
0.00246712
0.00247697
0.00247399
0.0024608
0.00244264
0.00242275
0.00239856
0.00236984
0.00233737
0.00230328
0.00226824
0.00223057
0.00218876
0.00214343
0.00209512
0.00204414
0.00199081
0.00193394
0.00187296
0.00180885
0.00174175
0.00167219
0.00160054
0.00152723
0.00145268
0.00137826
0.00130372
0.00122942
0.00115553
0.00108187
0.00100816
0.000933665
0.000858096
0.00078092
0.000701994
0.000621528
0.000540095
0.000458944
0.000379663
0.000304097
0.000234122
0.000170476
0.000116577
4.90343e-05
0.000855928
0.000976843
0.00106049
0.00111845
0.00116048
0.00119268
0.00121952
0.00124256
0.00126211
0.00127856
0.00128985
0.00129932
0.00130636
0.00131088
0.00131564
0.0013196
0.00132426
0.00133265
0.00134949
0.00138802
0.00145126
0.00154544
0.00166429
0.00179663
0.00193005
0.00205501
0.00216469
0.00225636
0.00232908
0.00238338
0.0024204
0.0024415
0.00244878
0.00244456
0.00243191
0.00241301
0.00238784
0.00235665
0.00232093
0.00228591
0.00225572
0.00222505
0.00219103
0.00215431
0.00211623
0.0020786
0.00204113
0.0020024
0.00196128
0.00191789
0.00187256
0.00182527
0.00177651
0.00172651
0.00167558
0.00162503
0.00157435
0.00152403
0.00147427
0.00142486
0.00137583
0.00132628
0.00127593
0.00122388
0.00116916
0.00111099
0.00104831
0.000980518
0.000907179
0.000828199
0.000744604
0.000654816
0.000575435
0.000435401
0.000962601
0.00102402
0.00106033
0.00108091
0.00109109
0.00109842
0.00110634
0.00111438
0.00112246
0.00113137
0.00113539
0.00114056
0.00114345
0.00114202
0.00114286
0.00114315
0.00114552
0.00115118
0.00116004
0.00118819
0.00123162
0.00130634
0.0014094
0.00153413
0.00166925
0.00180607
0.00193359
0.00204714
0.0021438
0.00222274
0.00228429
0.00232942
0.00235982
0.00237725
0.00238403
0.00238208
0.00237183
0.00235425
0.0023304
0.00230287
0.00227367
0.00224124
0.00220305
0.00216099
0.0021185
0.00208333
0.00205152
0.00202024
0.0019878
0.00195371
0.00191815
0.001881
0.00184302
0.00180494
0.00176698
0.00172965
0.00169279
0.00165664
0.00162143
0.00158722
0.00155424
0.00152222
0.00149116
0.00146069
0.00143033
0.0013995
0.00136731
0.00133284
0.00129506
0.00125268
0.00120562
0.00114782
0.00109982
0.000976804
0.000925681
0.000914883
0.00089291
0.000869295
0.000845491
0.000826413
0.000813467
0.000804631
0.000799395
0.000798643
0.000795331
0.000795707
0.000795081
0.000789367
0.000787112
0.000784518
0.000785333
0.000789897
0.000794057
0.000814072
0.000838949
0.000891119
0.000971328
0.00107955
0.00120766
0.00135098
0.00149472
0.0016326
0.00175919
0.00187125
0.00196729
0.00204707
0.00211169
0.00216184
0.00220011
0.00222851
0.00224677
0.00225668
0.00225861
0.00225579
0.00224694
0.00223223
0.00221149
0.002185
0.0021544
0.00212239
0.00208941
0.00205446
0.00201686
0.00197687
0.00193509
0.00189104
0.00184835
0.00180948
0.00177277
0.00173734
0.00170265
0.00166856
0.00163517
0.00160261
0.00157113
0.00154084
0.00151189
0.00148438
0.00145837
0.00143376
0.0014104
0.00138807
0.00136659
0.00134544
0.00132507
0.00130138
0.00128525
0.00123721
0.00067815
0.00061929
0.000560869
0.000510045
0.000466544
0.000431329
0.000403681
0.000381473
0.000363883
0.000351149
0.000339076
0.000330597
0.000322923
0.000312901
0.000305268
0.000297952
0.00029343
0.000292154
0.000291061
0.000298115
0.000305132
0.000326043
0.000366028
0.000432925
0.000528207
0.000654397
0.000796965
0.000947363
0.00109703
0.0012398
0.00137163
0.00149036
0.00159599
0.00168717
0.00176653
0.00183602
0.00189366
0.00194205
0.00198075
0.00201558
0.00204082
0.00205758
0.00207028
0.00207493
0.0020742
0.00206815
0.00205697
0.0020411
0.00202078
0.00199644
0.00196832
0.00193668
0.00190244
0.00186658
0.0018297
0.00179241
0.00175462
0.00171663
0.00167863
0.00164081
0.00160343
0.00156654
0.00153029
0.00149472
0.00145987
0.00142564
0.00139188
0.00135839
0.00132505
0.00129164
0.0012585
0.00122371
0.00119528
0.00113372
0.000279709
0.000234574
0.000191417
0.000154095
0.000122317
9.55735e-05
7.31297e-05
5.43648e-05
3.92137e-05
2.78028e-05
1.90522e-05
1.31011e-05
8.95989e-06
5.92822e-06
4.02119e-06
2.7539e-06
1.96805e-06
1.50922e-06
1.17855e-06
1.08264e-06
9.67275e-07
1.00014e-06
1.25067e-06
2.27783e-06
6.88032e-06
2.94609e-05
8.49604e-05
0.000163102
0.00025895
0.000373308
0.000500762
0.000633895
0.000766199
0.000890572
0.001007
0.00111594
0.00121367
0.00130314
0.00138287
0.00146136
0.00152797
0.00158424
0.00163902
0.00168348
0.00172239
0.00175369
0.00177643
0.00179223
0.00180238
0.00180744
0.00180589
0.00179944
0.00178784
0.0017721
0.00175261
0.00172916
0.00170277
0.00167368
0.00164215
0.00160862
0.00157311
0.00153603
0.00149735
0.00145717
0.00141564
0.00137269
0.00132843
0.00128285
0.00123599
0.00118795
0.00113907
0.00108875
0.00104407
0.000964353
1.88353e-05
8.84518e-06
3.77485e-06
1.71047e-06
9.02277e-07
5.7303e-07
4.33646e-07
3.8032e-07
3.74366e-07
4.01974e-07
4.59707e-07
5.47828e-07
6.71027e-07
8.38742e-07
1.05101e-06
1.31366e-06
1.62205e-06
1.96986e-06
2.35626e-06
2.74776e-06
3.16259e-06
3.56231e-06
3.94359e-06
4.26412e-06
4.39948e-06
4.20217e-06
3.54086e-06
2.63336e-06
1.99982e-06
2.28435e-06
5.18183e-06
1.81336e-05
5.44161e-05
0.000109207
0.000173988
0.000247793
0.000328534
0.000415424
0.00050485
0.000600145
0.00069041
0.000774005
0.000859126
0.000935354
0.00100762
0.00107227
0.00112685
0.00117334
0.00121344
0.00124769
0.00127238
0.00129041
0.00130057
0.00130452
0.00130218
0.00129164
0.00127519
0.00125247
0.00122353
0.00118923