/*--------------------------------*- C++ -*----------------------------------*\
| =========                 |                                                 |
| \\      /  F ield         | OpenFOAM: The Open Source CFD Toolbox           |
|  \\    /   O peration     | Version:  2312                                  |
|   \\  /    A nd           | Website:  www.openfoam.com                      |
|    \\/     M anipulation  |                                                 |
\*---------------------------------------------------------------------------*/
FoamFile
{
    version     2.0;
    format      ascii;
    arch        "LSB;label=32;scalar=64";
    class       volScalarField;
    location    "50";
    object      turbulenceProperties:I;
}
// * * * * * * * * * * * * * * * * * * * * * * * * * * * * * * * * * * * * * //

dimensions      [0 0 0 0 0 0 0];

internalField   nonuniform List<scalar> 
11040
(
0.0990298
0.0697511
0.0785059
0.0992442
0.128014
0.164487
0.203073
0.232566
0.249046
0.256211
0.258722
0.259329
0.259214
0.258857
0.258505
0.258317
0.25838
0.25873
0.259357
0.26022
0.261362
0.262501
0.26316
0.263435
0.263691
0.264184
0.264997
0.265976
0.266977
0.267845
0.268473
0.269019
0.26964
0.270724
0.272618
0.275639
0.280134
0.286353
0.295353
0.30619
0.337061
0.0483818
0.0298891
0.0236652
0.0199702
0.0179621
0.0181846
0.0215509
0.0266474
0.0317114
0.0364021
0.0407281
0.0447223
0.0483812
0.0517158
0.0547785
0.0576553
0.0604223
0.0631405
0.0658452
0.0685587
0.0714062
0.0741523
0.0762638
0.0777408
0.0789734
0.0803255
0.0819617
0.0837649
0.0855489
0.0871019
0.0882913
0.0892903
0.0903565
0.09197
0.094627
0.0987667
0.104819
0.112957
0.124326
0.13699
0.17143
0.0331615
0.0227519
0.0141306
0.0107139
0.0104745
0.010236
0.00972575
0.00908951
0.00845233
0.00790719
0.00736588
0.00675122
0.00630542
0.00825857
0.012092
0.0163973
0.0209052
0.025514
0.0301461
0.0347401
0.0393184
0.0437565
0.0477934
0.0512941
0.0543366
0.0570908
0.0596573
0.0620889
0.0643504
0.0663931
0.0682032
0.0698222
0.0714172
0.0731885
0.0754147
0.0783569
0.082254
0.0871668
0.0941392
0.101111
0.12244
0.0228556
0.0192548
0.0152111
0.0125439
0.010798
0.00951833
0.00850588
0.00765997
0.00690955
0.00621344
0.00555771
0.00491469
0.0042514
0.00356471
0.00290117
0.00246918
0.00276811
0.003741
0.00517055
0.00706001
0.00948824
0.0123156
0.0152287
0.018163
0.0211606
0.0242456
0.0273806
0.0305038
0.0335489
0.0364791
0.0393009
0.0420818
0.0449389
0.048024
0.0514912
0.0554555
0.0600189
0.0652201
0.0717672
0.078213
0.0939531
0.0165673
0.0154191
0.0131728
0.0107531
0.00858778
0.0069407
0.00592001
0.00541908
0.00519506
0.00505984
0.00492986
0.00477213
0.00458267
0.00438541
0.00419372
0.00400516
0.00379294
0.0035388
0.00326201
0.00300322
0.00278711
0.0025996
0.00241498
0.00218907
0.00219599
0.00315947
0.00458053
0.00612951
0.00774463
0.00943909
0.0112647
0.0132906
0.0155857
0.0182465
0.0213793
0.0250754
0.0294089
0.0344975
0.0408677
0.0475939
0.0618273
0.0123766
0.012141
0.0112333
0.00999686
0.00871812
0.00762608
0.00675836
0.00607545
0.00553068
0.00508472
0.00470601
0.00437114
0.00406669
0.00378266
0.00349551
0.0031951
0.00289054
0.00259998
0.0023375
0.00211439
0.00193257
0.00182207
0.00181558
0.00184948
0.00183133
0.0017283
0.00162004
0.00161363
0.00169381
0.00182682
0.0020537
0.00237854
0.00275367
0.00318643
0.00382271
0.00494624
0.00675018
0.00929863
0.0129305
0.0170459
0.0269427
0.0095016
0.00956204
0.0092424
0.00866729
0.00783779
0.00692871
0.0060724
0.00533022
0.00472489
0.00425856
0.0039178
0.00367603
0.00350161
0.00337317
0.00328262
0.00322531
0.00318612
0.00313383
0.00303907
0.00290367
0.00276651
0.0026652
0.00261591
0.00260577
0.00258885
0.00251006
0.00236395
0.0022066
0.00210825
0.00208655
0.00213168
0.00223259
0.0023329
0.00235523
0.00226492
0.00210345
0.00199842
0.00208094
0.00251131
0.00299979
0.0065637
0.00743075
0.0075761
0.00749327
0.00732099
0.00694139
0.00642264
0.00587216
0.00535666
0.00490293
0.0045144
0.00418341
0.00389713
0.00364413
0.00341884
0.00321997
0.00304519
0.00288641
0.00273523
0.00258224
0.00242181
0.00226177
0.00211744
0.00200599
0.00195035
0.00195806
0.00197485
0.00194578
0.00188475
0.00185133
0.00186155
0.00188276
0.00192994
0.0020514
0.00221573
0.00234147
0.00239729
0.00242577
0.00246827
0.00253297
0.00239047
0.00229854
0.00589359
0.0060539
0.00604447
0.00604863
0.00592531
0.00566258
0.00531218
0.00492624
0.00454211
0.00418243
0.00385941
0.00357614
0.00333136
0.00312282
0.00294934
0.00281517
0.00272508
0.0026728
0.00263601
0.00258795
0.00251325
0.0024243
0.00235022
0.00231499
0.0023243
0.00234798
0.00234233
0.00228857
0.00220607
0.00213338
0.0020939
0.00209335
0.00214659
0.00225964
0.00239328
0.00250093
0.00257925
0.00266104
0.00279045
0.00290525
0.00287334
0.00472077
0.00487463
0.00487994
0.0049469
0.0049568
0.00487236
0.00470873
0.00449235
0.00425003
0.00400396
0.00376881
0.00355093
0.00335139
0.00316923
0.00300278
0.0028523
0.00271973
0.00260464
0.00250157
0.00240018
0.00229253
0.00218201
0.00208023
0.00200223
0.00196022
0.00195254
0.00195813
0.00195149
0.00192792
0.00190518
0.00189687
0.00189718
0.00190665
0.00195449
0.00205816
0.00218946
0.0023175
0.00243959
0.00258536
0.00273829
0.00285891
0.00380903
0.00394991
0.00395218
0.00403002
0.00409167
0.00409883
0.00404993
0.00395098
0.00381305
0.00365029
0.00347654
0.00330154
0.00313144
0.00297039
0.00282061
0.00268425
0.00256518
0.00246809
0.00239429
0.0023367
0.00228108
0.00221903
0.00215292
0.00209443
0.0020603
0.00205877
0.00208093
0.00210535
0.00211482
0.0021068
0.00209003
0.00207258
0.0020588
0.0020584
0.00208526
0.00214046
0.00220781
0.00227153
0.00234023
0.00241192
0.00248388
0.00308948
0.00321557
0.00321198
0.0032822
0.00335626
0.00340299
0.003418
0.00339918
0.00334738
0.00326815
0.00316998
0.00306057
0.00294613
0.00283146
0.00271965
0.0026127
0.00251253
0.00242129
0.00233996
0.00226627
0.0021958
0.00212537
0.00205299
0.00198229
0.00192344
0.00188585
0.00187205
0.00187474
0.00188118
0.00188259
0.00187818
0.00187006
0.00185754
0.0018413
0.00183038
0.00183996
0.00187632
0.00193291
0.00200282
0.00207656
0.00214952
0.00251548
0.0026264
0.00261858
0.00267652
0.00274621
0.00280347
0.00284543
0.00286832
0.00286851
0.0028456
0.0028025
0.00274331
0.00267236
0.00259391
0.00251159
0.00242827
0.0023464
0.00226849
0.00219711
0.00213387
0.00207798
0.00202811
0.00198122
0.00193578
0.00189576
0.0018671
0.00185364
0.00185447
0.00186349
0.00187328
0.00187882
0.00187859
0.0018721
0.0018591
0.00184198
0.00182797
0.00182435
0.00183421
0.00185428
0.00187692
0.00190745
0.00205368
0.00214968
0.00214001
0.00218617
0.00224609
0.00230106
0.00235015
0.00239063
0.00241835
0.00243071
0.00242748
0.00240977
0.00237952
0.0023393
0.0022917
0.00223914
0.00218372
0.0021274
0.00207212
0.00201941
0.00197021
0.00192531
0.00188319
0.00184188
0.00180273
0.00176866
0.00174247
0.00172541
0.00171642
0.00171238
0.00170986
0.00170639
0.00170019
0.00168973
0.00167425
0.00165619
0.00164048
0.00163411
0.00163886
0.00165051
0.00167431
0.00167951
0.00176117
0.00175164
0.00178804
0.00183751
0.00188551
0.00193228
0.00197636
0.00201438
0.00204353
0.0020623
0.00207017
0.00206729
0.00205454
0.00203327
0.00200507
0.00197164
0.00193467
0.00189585
0.00185674
0.00181866
0.00178368
0.00175211
0.0017224
0.00169461
0.00166965
0.00164894
0.00163381
0.00162489
0.00162151
0.00162193
0.0016237
0.00162418
0.00162078
0.00161146
0.00159599
0.00157573
0.00155431
0.00153526
0.00151875
0.00151166
0.00137496
0.00144309
0.00143506
0.00146372
0.00150365
0.00154369
0.00158459
0.00162572
0.00166473
0.00169937
0.00172809
0.00174987
0.00176409
0.00177062
0.00176978
0.00176224
0.00174893
0.00173086
0.00170915
0.00168489
0.00165925
0.0016342
0.00161035
0.00158688
0.00156376
0.00154125
0.00151997
0.00150077
0.00148437
0.00147098
0.00146007
0.00145048
0.00144061
0.00142863
0.00141294
0.00139261
0.00136803
0.00134126
0.00131527
0.00129336
0.00127841
0.00112868
0.00118416
0.00117857
0.0012013
0.001233
0.00126552
0.00129971
0.00133531
0.00137072
0.00140434
0.00143495
0.00146156
0.00148338
0.00149982
0.00151063
0.00151582
0.00151566
0.00151061
0.00150125
0.00148825
0.00147223
0.00145485
0.00143714
0.00141906
0.00140092
0.00138302
0.00136574
0.00134956
0.0013349
0.00132197
0.00131061
0.00130023
0.00128994
0.00127849
0.0012646
0.00124746
0.00122692
0.00120383
0.00117926
0.00115637
0.00113776
0.00093617
0.000980495
0.000977357
0.000995914
0.00102116
0.0010475
0.00107574
0.0011057
0.00113624
0.00116628
0.00119494
0.00122148
0.00124519
0.00126549
0.00128193
0.00129426
0.0013024
0.00130644
0.00130658
0.0013032
0.00129658
0.00128783
0.00127783
0.00126674
0.00125496
0.00124275
0.00123029
0.00121775
0.00120529
0.00119298
0.00118073
0.00116824
0.00115514
0.00114093
0.00112507
0.00110718
0.00108725
0.00106626
0.0010447
0.00102394
0.00100761
0.00078883
0.000824429
0.00082288
0.000838346
0.000858853
0.000880476
0.000903973
0.000929136
0.000955148
0.000981221
0.00100674
0.00103113
0.00105387
0.00107443
0.00109239
0.0011074
0.00111924
0.00112782
0.00113314
0.00113532
0.00113444
0.00113117
0.00112616
0.0011196
0.00111187
0.00110323
0.00109383
0.00108382
0.00107338
0.00106263
0.00105172
0.00104068
0.00102948
0.00101802
0.00100617
0.000993768
0.000980455
0.000966438
0.000952072
0.000936608
0.000924396
0.000674762
0.000703394
0.000702996
0.000716025
0.000732896
0.000750855
0.00077054
0.000791736
0.000813794
0.000836136
0.000858293
0.000879856
0.000900407
0.00091954
0.000936883
0.00095212
0.000965001
0.000975349
0.000983053
0.000988099
0.000990426
0.000990423
0.00098846
0.00098465
0.000979334
0.000972741
0.000965057
0.000956444
0.000947075
0.000937091
0.000926618
0.000915722
0.000904411
0.0008926
0.000880243
0.000867303
0.000853649
0.000839209
0.000824502
0.00080893
0.000795064
0.000583921
0.000607016
0.000607371
0.000618382
0.000632366
0.000647415
0.000663998
0.000681934
0.00070066
0.00071976
0.000738835
0.000757594
0.000775687
0.000792816
0.00080865
0.000822934
0.000835413
0.000845908
0.000854247
0.000860354
0.000864077
0.000865645
0.000865301
0.000863131
0.000859433
0.000854438
0.000848345
0.000841325
0.000833545
0.000825127
0.000816191
0.000806798
0.000797022
0.000786831
0.000776255
0.000765303
0.000753995
0.00074225
0.000730305
0.000717628
0.000706536
0.000510074
0.000528774
0.000529659
0.000538986
0.000550684
0.000563376
0.000577444
0.000592684
0.000608646
0.000624983
0.000641383
0.000657601
0.000673363
0.000688424
0.000702526
0.000715451
0.000726985
0.000736962
0.00074522
0.000751665
0.000756143
0.000758808
0.000759821
0.000759207
0.000757191
0.000753954
0.000749659
0.000744445
0.000738445
0.000731762
0.000724502
0.000716727
0.000708525
0.000699921
0.000690954
0.00068166
0.000672059
0.000662168
0.000652244
0.000641063
0.000632658
0.000448991
0.000464165
0.000465406
0.000473341
0.000483203
0.000493968
0.000505957
0.000518944
0.000532591
0.000546578
0.000560679
0.000574656
0.000588313
0.000601421
0.000613791
0.000625219
0.000635544
0.000644602
0.000652265
0.000658417
0.000662912
0.00066586
0.000667371
0.000667422
0.000666178
0.000663797
0.000660409
0.00065615
0.000651136
0.000645483
0.000639273
0.000632608
0.000625565
0.000618196
0.000610531
0.000602682
0.000594666
0.000586422
0.000578324
0.000568872
0.000562541
0.000397712
0.000410077
0.000411559
0.000418353
0.00042673
0.000435923
0.000446181
0.00045729
0.000468979
0.000480975
0.000493099
0.000505139
0.000516937
0.000528289
0.000539049
0.000549035
0.00055812
0.000566154
0.000573035
0.000578655
0.00058288
0.000585812
0.00058754
0.000588018
0.000587372
0.000585731
0.0005832
0.000579892
0.000575894
0.000571296
0.000566171
0.000560614
0.000554684
0.000548415
0.000541865
0.000535124
0.000528242
0.000521158
0.000514271
0.00050589
0.000500783
0.000354137
0.000364232
0.000365869
0.000371746
0.00037892
0.000386836
0.00039565
0.000405191
0.000415218
0.000425526
0.000435947
0.000446317
0.000456487
0.000466296
0.000475606
0.000484273
0.000492181
0.000499207
0.000505258
0.000510245
0.000514041
0.000516753
0.000518458
0.000519094
0.000518762
0.000517561
0.000515581
0.000512912
0.000509637
0.000505831
0.000501581
0.000496951
0.000492004
0.000486768
0.000481317
0.000475725
0.000470049
0.000464167
0.000458556
0.00045129
0.000447552
0.000316716
0.000324992
0.000326706
0.000331823
0.000338032
0.000344912
0.000352537
0.000360775
0.000369401
0.000378277
0.000387235
0.000396168
0.00040492
0.000413383
0.00042141
0.000428903
0.000435737
0.000441829
0.00044708
0.000451428
0.000454749
0.000457157
0.000458729
0.000459392
0.00045923
0.000458321
0.000456747
0.000454576
0.000451891
0.000448757
0.000445248
0.000441401
0.000437277
0.0004329
0.000428326
0.000423599
0.000418767
0.000413699
0.000408934
0.000402412
0.00039914
0.000284332
0.000291071
0.000292822
0.000297311
0.000302734
0.000308767
0.000315425
0.000322583
0.000330047
0.000337707
0.000345424
0.000353115
0.000360648
0.000367934
0.000374844
0.000381295
0.000387177
0.000392422
0.000396942
0.000400683
0.00040354
0.000405627
0.000407023
0.000407654
0.000407583
0.000406879
0.00040561
0.000403842
0.000401642
0.000399073
0.000396172
0.000392981
0.000389548
0.000385903
0.000382063
0.000378087
0.000374018
0.000369731
0.000365776
0.000360179
0.000357365
0.000256073
0.000261562
0.000263275
0.000267202
0.000271983
0.000277318
0.000283196
0.000289467
0.000295977
0.000302615
0.000309292
0.00031592
0.000322413
0.000328678
0.000334622
0.000340159
0.000345206
0.000349691
0.000353554
0.000356741
0.000359163
0.000360935
0.000362134
0.000362685
0.000362635
0.000362058
0.000361
0.000359535
0.000357709
0.000355577
0.000353162
0.000350523
0.000347684
0.000344673
0.000341489
0.000338189
0.000334824
0.000331262
0.000328045
0.000323377
0.000320952
0.00023129
0.000235693
0.00023733
0.000240755
0.000244973
0.000249726
0.000254964
0.000260512
0.000266245
0.000272043
0.00027785
0.000283581
0.000289188
0.000294578
0.000299693
0.000304443
0.000308769
0.000312596
0.000315881
0.000318574
0.000320603
0.000322081
0.000323086
0.000323542
0.000323489
0.000322991
0.000322093
0.000320856
0.000319323
0.000317542
0.000315546
0.000313372
0.000311046
0.000308568
0.000305949
0.000303228
0.000300468
0.000297513
0.000294895
0.000291035
0.000288907
0.000209435
0.000212943
0.00021442
0.000217393
0.000221116
0.000225359
0.00023005
0.000235008
0.000240101
0.000245216
0.000250301
0.000255288
0.000260141
0.000264795
0.000269203
0.000273291
0.000277005
0.00028028
0.000283071
0.000285343
0.000287036
0.000288263
0.000289107
0.000289493
0.000289451
0.000289021
0.000288265
0.000287219
0.000285934
0.000284437
0.000282773
0.000280953
0.000279019
0.000276954
0.000274782
0.000272516
0.000270234
0.000267765
0.000265605
0.000262444
0.000260455
0.000190099
0.000192831
0.000194147
0.000196703
0.000199954
0.00020374
0.000207943
0.0002124
0.000216958
0.000221518
0.000226005
0.000230378
0.000234599
0.000238635
0.000242443
0.000245976
0.000249179
0.000251996
0.000254391
0.000256323
0.000257738
0.000258753
0.000259463
0.000259782
0.000259755
0.000259403
0.000258774
0.000257886
0.000256796
0.000255518
0.000254105
0.000252566
0.000250942
0.000249217
0.00024741
0.000245531
0.000243643
0.000241589
0.000239802
0.000237271
0.000235266
0.000172942
0.000175025
0.000176157
0.000178352
0.000181175
0.000184522
0.000188278
0.000192283
0.000196379
0.000200471
0.000204465
0.000208329
0.000212023
0.000215536
0.000218835
0.0002219
0.000224679
0.000227132
0.000229208
0.000230871
0.000232062
0.000232898
0.000233481
0.000233737
0.000233695
0.000233386
0.000232844
0.00023209
0.000231154
0.000230066
0.000228859
0.000227559
0.000226185
0.000224748
0.000223246
0.0002217
0.000220144
0.000218454
0.000216975
0.000214989
0.000212956
0.000157614
0.000159184
0.000160204
0.000162075
0.000164524
0.000167472
0.000170798
0.000174373
0.000178047
0.00018172
0.000185298
0.000188734
0.000191989
0.000195058
0.000197925
0.000200583
0.000203007
0.000205161
0.000206991
0.000208464
0.000209505
0.000210214
0.000210691
0.000210884
0.000210807
0.000210517
0.000210031
0.000209379
0.000208568
0.000207637
0.000206592
0.000205472
0.000204287
0.000203064
0.000201792
0.000200497
0.000199205
0.000197809
0.000196589
0.000195047
0.000193012
0.000143872
0.000145061
0.000146005
0.000147652
0.000149803
0.000152369
0.000155294
0.000158448
0.000161722
0.000165002
0.000168208
0.000171273
0.000174161
0.000176852
0.000179347
0.00018165
0.000183753
0.000185644
0.000187284
0.000188622
0.000189575
0.000190227
0.000190652
0.000190805
0.000190708
0.00019042
0.000189957
0.000189367
0.000188653
0.000187848
0.000186946
0.000185974
0.000184943
0.000183877
0.000182771
0.000181645
0.000180539
0.000179356
0.000178315
0.000177125
0.000175124
0.000131439
0.000132385
0.000133327
0.000134836
0.00013675
0.000139005
0.000141563
0.00014433
0.000147219
0.000150128
0.000152985
0.000155716
0.000158283
0.000160652
0.000162826
0.00016481
0.00016662
0.000168257
0.000169713
0.000170942
0.000171857
0.000172508
0.00017296
0.000173139
0.000173058
0.000172766
0.000172313
0.000171747
0.000171099
0.00017038
0.000169601
0.00016876
0.000167875
0.000166943
0.000165974
0.000164971
0.000163986
0.000162934
0.000161973
0.000161064
0.000159055
0.000120126
0.000120913
0.000121892
0.000123342
0.000125108
0.000127136
0.000129398
0.000131837
0.000134376
0.000136944
0.000139472
0.000141896
0.000144167
0.000146254
0.000148142
0.000149842
0.000151377
0.000152765
0.000154018
0.000155128
0.000156014
0.000156706
0.000157244
0.000157529
0.000157539
0.000157308
0.000156882
0.000156317
0.000155665
0.000154965
0.000154241
0.000153496
0.000152737
0.00015195
0.00015113
0.000150272
0.000149415
0.000148498
0.000147595
0.000146947
0.000144906
0.000109742
0.000110439
0.000111469
0.000112901
0.000114607
0.000116497
0.000118561
0.000120744
0.000123
0.000125272
0.000127509
0.000129652
0.000131656
0.000133482
0.000135119
0.000136564
0.00013784
0.000138981
0.000140019
0.000140961
0.000141767
0.000142471
0.000143099
0.000143524
0.000143706
0.000143619
0.000143294
0.000142764
0.00014211
0.000141385
0.000140653
0.000139934
0.000139245
0.000138569
0.000137889
0.000137182
0.000136462
0.000135681
0.000134824
0.000134313
0.000132355
0.000100176
0.000100787
0.000101839
0.000103295
0.000104973
0.000106814
0.000108755
0.000110772
0.000112824
0.000114878
0.000116883
0.000118796
0.000120574
0.000122181
0.000123598
0.000124819
0.000125865
0.000126763
0.000127561
0.000128293
0.000128948
0.000129574
0.000130209
0.000130737
0.000131099
0.000131231
0.00013112
0.000130756
0.000130196
0.000129496
0.000128742
0.000127989
0.000127282
0.000126628
0.000126005
0.000125383
0.000124744
0.000124059
0.000123223
0.000122686
0.000120896
9.13436e-05
9.18631e-05
9.29008e-05
9.43251e-05
9.60118e-05
9.78204e-05
9.96989e-05
0.000101623
0.000103553
0.000105465
0.000107318
0.000109077
0.000110702
0.000112157
0.000113415
0.000114468
0.000115325
0.000116013
0.000116579
0.00011707
0.000117507
0.000117964
0.000118486
0.000119005
0.000119458
0.000119784
0.000119922
0.000119831
0.000119495
0.000118945
0.000118238
0.000117459
0.00011668
0.000115951
0.000115275
0.000114632
0.000113988
0.000113329
0.000112501
0.000111886
0.000110126
8.3231e-05
8.36235e-05
8.45799e-05
8.59537e-05
8.75798e-05
8.9356e-05
9.1197e-05
9.30614e-05
9.49241e-05
9.67499e-05
9.85158e-05
0.000100193
0.000101744
0.000103134
0.00010433
0.000105308
0.000106064
0.000106613
0.000106998
0.000107263
0.000107465
0.000107687
0.000107995
0.000108369
0.000108782
0.000109189
0.000109528
0.000109732
0.000109737
0.000109507
0.000109043
0.000108391
0.000107629
0.000106835
0.000106068
0.000105347
0.000104659
0.000104
0.000103181
0.000102583
0.000100902
7.57791e-05
7.60578e-05
7.69162e-05
7.81622e-05
7.96976e-05
8.13835e-05
8.31449e-05
8.49453e-05
8.67413e-05
8.85063e-05
9.02205e-05
9.18579e-05
9.33911e-05
9.4783e-05
9.59988e-05
9.70069e-05
9.77839e-05
9.83231e-05
9.86409e-05
9.87769e-05
9.87817e-05
9.87529e-05
9.8763e-05
9.88454e-05
9.90121e-05
9.92608e-05
9.95536e-05
9.98417e-05
0.000100051
0.000100116
9.99721e-05
9.95982e-05
9.90071e-05
9.82609e-05
9.74387e-05
9.66176e-05
9.58382e-05
9.51453e-05
9.42991e-05
9.39215e-05
9.22522e-05
6.90911e-05
6.92681e-05
7.00306e-05
7.11465e-05
7.25176e-05
7.40323e-05
7.56304e-05
7.72636e-05
7.89121e-05
8.05605e-05
8.21993e-05
8.3802e-05
8.53446e-05
8.67826e-05
8.80798e-05
8.91911e-05
9.00849e-05
9.07445e-05
9.11582e-05
9.13548e-05
9.13664e-05
9.12766e-05
9.11584e-05
9.10774e-05
9.10723e-05
9.11736e-05
9.1376e-05
9.16591e-05
9.19797e-05
9.22822e-05
9.2494e-05
9.25452e-05
9.23808e-05
9.19832e-05
9.13786e-05
9.06335e-05
8.98292e-05
8.90811e-05
8.82021e-05
8.79609e-05
8.65673e-05
6.30321e-05
6.3207e-05
6.39356e-05
6.49474e-05
6.61754e-05
6.75129e-05
6.88913e-05
7.02703e-05
7.16465e-05
7.30225e-05
7.44148e-05
7.58314e-05
7.72716e-05
7.87093e-05
8.01041e-05
8.13938e-05
8.25176e-05
8.34159e-05
8.40456e-05
8.43903e-05
8.4453e-05
8.4279e-05
8.39547e-05
8.35572e-05
8.31581e-05
8.28168e-05
8.25664e-05
8.2418e-05
8.23685e-05
8.23992e-05
8.2485e-05
8.25778e-05
8.26239e-05
8.25557e-05
8.23247e-05
8.19127e-05
8.13401e-05
8.07202e-05
7.9877e-05
7.98627e-05
7.77602e-05
5.75938e-05
5.78376e-05
5.85721e-05
5.94948e-05
6.05715e-05
6.1752e-05
6.29702e-05
6.4183e-05
6.53571e-05
6.64771e-05
6.75449e-05
6.85802e-05
6.96175e-05
7.0689e-05
7.18213e-05
7.30191e-05
7.42614e-05
7.55051e-05
7.66887e-05
7.77524e-05
7.86307e-05
7.92885e-05
7.97432e-05
7.99976e-05
8.00871e-05
8.00648e-05
7.99864e-05
7.98964e-05
7.98251e-05
7.97854e-05
7.97794e-05
7.97956e-05
7.98163e-05
7.98048e-05
7.97153e-05
7.94982e-05
7.91218e-05
7.86005e-05
7.78187e-05
7.7394e-05
7.5625e-05
5.28629e-05
5.3299e-05
5.40671e-05
5.48314e-05
5.56153e-05
5.64431e-05
5.73427e-05
5.833e-05
5.94083e-05
6.05438e-05
6.16895e-05
6.27897e-05
6.37993e-05
6.46871e-05
6.54405e-05
6.60658e-05
6.65769e-05
6.69926e-05
6.73194e-05
6.75646e-05
6.76976e-05
6.77155e-05
6.76431e-05
6.74853e-05
6.72568e-05
6.69785e-05
6.66816e-05
6.63946e-05
6.61398e-05
6.59301e-05
6.57726e-05
6.56711e-05
6.56305e-05
6.56526e-05
6.5729e-05
6.58385e-05
6.59294e-05
6.60053e-05
6.57713e-05
6.63571e-05
6.29667e-05
4.86853e-05
4.945e-05
5.04562e-05
5.12656e-05
5.18433e-05
5.22297e-05
5.24843e-05
5.26861e-05
5.29183e-05
5.32621e-05
5.3796e-05
5.45891e-05
5.56856e-05
5.70973e-05
5.8791e-05
6.07055e-05
6.2751e-05
6.48372e-05
6.68779e-05
6.87918e-05
7.05431e-05
7.20835e-05
7.339e-05
7.44262e-05
7.51962e-05
7.57178e-05
7.60223e-05
7.61442e-05
7.61217e-05
7.59875e-05
7.57643e-05
7.54643e-05
7.50911e-05
7.46416e-05
7.41107e-05
7.34934e-05
7.27961e-05
7.20137e-05
7.1129e-05
7.01724e-05
6.9472e-05
4.51706e-05
4.62984e-05
4.76124e-05
4.87221e-05
4.95536e-05
5.00898e-05
5.03103e-05
5.02242e-05
4.98657e-05
4.93033e-05
4.86279e-05
4.79569e-05
4.74021e-05
4.7056e-05
4.69604e-05
4.71009e-05
4.74179e-05
4.78323e-05
4.82743e-05
4.87058e-05
4.90747e-05
4.93815e-05
4.96082e-05
4.98144e-05
5.00333e-05
5.02742e-05
5.05382e-05
5.08189e-05
5.11004e-05
5.13664e-05
5.16e-05
5.17982e-05
5.19637e-05
5.21224e-05
5.23099e-05
5.25808e-05
5.29591e-05
5.35235e-05
5.39664e-05
5.53049e-05
5.41493e-05
4.24197e-05
4.33945e-05
4.42672e-05
4.53368e-05
4.71715e-05
5.0047e-05
5.37333e-05
5.77703e-05
6.17596e-05
6.54406e-05
6.86791e-05
7.14119e-05
7.36339e-05
7.53606e-05
7.66352e-05
7.75041e-05
7.80308e-05
7.82726e-05
7.82935e-05
7.81409e-05
7.78749e-05
7.76867e-05
7.74714e-05
7.72777e-05
7.71239e-05
7.70149e-05
7.69486e-05
7.6916e-05
7.69015e-05
7.68841e-05
7.68398e-05
7.67415e-05
7.65635e-05
7.62774e-05
7.58743e-05
7.53504e-05
7.47135e-05
7.39375e-05
7.31412e-05
7.2472e-05
7.09668e-05
0.100238
0.0890005
0.0822934
0.0784609
0.0758154
0.072748
0.0697846
0.0673066
0.064672
0.0619487
0.0597871
0.0576548
0.0556999
0.0541229
0.0518123
0.0497084
0.0471569
0.0450383
0.0431173
0.0413577
0.0399147
0.0385177
0.0370605
0.03562
0.0341853
0.0324963
0.0309647
0.0291569
0.0270765
0.0245915
0.0219563
0.0187481
0.0149713
0.0103874
0.00703029
0.0125552
0.016395
0.0193071
0.0216175
0.0234117
0.0248241
0.025902
0.026627
0.0271331
0.0273232
0.0273461
0.0271776
0.0268213
0.0263014
0.0256512
0.0248944
0.0240371
0.0231012
0.0220955
0.0210368
0.0199667
0.0188639
0.0177561
0.0166462
0.0155401
0.0144408
0.0133415
0.0122435
0.0111429
0.0100372
0.00892959
0.00782403
0.00673415
0.00567588
0.0046691
0.00373722
0.00288833
0.00219894
0.00131063
0.165016
0.127104
0.107325
0.097551
0.0910183
0.0856991
0.0810641
0.0771252
0.0734355
0.069841
0.0667151
0.0638621
0.0611427
0.0589635
0.0566414
0.0545368
0.0522501
0.0501535
0.0483019
0.0466008
0.0454157
0.0445302
0.043719
0.0429559
0.0421762
0.0411706
0.0402445
0.0392213
0.0379557
0.0364103
0.0347442
0.0328137
0.0306537
0.028372
0.0256837
0.0226751
0.019321
0.0153557
0.0103389
0.0051686
0.011386
0.0149414
0.017631
0.0195647
0.0209983
0.0220753
0.0227797
0.0232686
0.0235425
0.023606
0.0234974
0.0232435
0.0228707
0.0223945
0.0218406
0.0212375
0.020581
0.0199006
0.0192002
0.0184909
0.0177793
0.0170619
0.0163408
0.0156093
0.0148582
0.01408
0.0132616
0.0123967
0.0114796
0.0105081
0.00949432
0.00840639
0.00746925
0.00581416
0.125905
0.106635
0.094087
0.086963
0.0813728
0.0768868
0.0730698
0.0696881
0.0665763
0.0635754
0.0607794
0.0583662
0.05592
0.0537179
0.0517794
0.0499593
0.0483301
0.046719
0.045341
0.0441614
0.0432863
0.0429656
0.0429165
0.0430292
0.0431214
0.0429879
0.0427526
0.0424414
0.0419044
0.0411242
0.0401626
0.0390004
0.0376032
0.0361319
0.0344118
0.0324942
0.0304453
0.0282097
0.0257927
0.0231263
0.0203702
0.0175213
0.0139752
0.00996671
0.00396242
0.00827939
0.0114128
0.0136385
0.0153009
0.0164777
0.0172967
0.0178579
0.0182022
0.0183774
0.0184228
0.0183375
0.0181684
0.0179327
0.0176476
0.0173302
0.0169931
0.0166485
0.0163039
0.0159627
0.0156255
0.0152891
0.014947
0.0145889
0.0142028
0.0137722
0.0132969
0.0127002
0.0122022
0.0110321
0.0930969
0.0788282
0.0687358
0.0628104
0.0582124
0.0546602
0.0518118
0.0493114
0.0470387
0.0448869
0.0428421
0.0412086
0.0395362
0.0378946
0.0365586
0.0352821
0.0343511
0.0334681
0.0327796
0.0323429
0.0319433
0.0321766
0.0328339
0.0338953
0.0351148
0.0362715
0.0371671
0.0379104
0.0383925
0.0386233
0.0386135
0.0383923
0.037902
0.0372804
0.0364661
0.0354615
0.0343352
0.0330608
0.031659
0.0301141
0.0284901
0.026881
0.0250428
0.0231801
0.0212002
0.01916
0.0171899
0.0150843
0.0127916
0.0103793
0.00776317
0.00447707
0.0038447
0.00646766
0.0080172
0.00898148
0.00965608
0.0101067
0.010399
0.0105765
0.0106655
0.0107028
0.0107069
0.0106939
0.0106828
0.0106806
0.0106994
0.0107399
0.0108018
0.0108786
0.0109706
0.0110578
0.0110976
0.0112994
0.0589171
0.0480343
0.0398217
0.0348048
0.0310796
0.0282764
0.0261257
0.0242978
0.0226227
0.021015
0.0195045
0.018337
0.0172717
0.0162973
0.015511
0.0147667
0.0142735
0.013884
0.0136713
0.0136507
0.0135743
0.0138832
0.0145478
0.0157671
0.0175004
0.0196542
0.0218198
0.0239557
0.0258693
0.0275158
0.0288501
0.0299189
0.0306695
0.0311856
0.0315001
0.0315859
0.0314942
0.0312262
0.0308042
0.0302594
0.0295583
0.0288191
0.0279662
0.0270132
0.0260067
0.0249082
0.0238314
0.0227209
0.0215422
0.0203547
0.0191953
0.018051
0.0169446
0.0158792
0.0148527
0.0139259
0.0130583
0.0122669
0.0115486
0.0108981
0.0103195
0.00979522
0.00931936
0.00888474
0.00847142
0.00807123
0.00766238
0.00723179
0.0067656
0.00624037
0.00565952
0.00484844
0.00430644
0.00162885
0.0254079
0.0194234
0.0147097
0.0118207
0.00976573
0.00823765
0.00711917
0.00620483
0.00531728
0.00439547
0.00348275
0.00274099
0.00219978
0.00190692
0.00168914
0.00148201
0.00127313
0.0011091
0.00103268
0.00105256
0.00106293
0.00111076
0.00116834
0.00134091
0.00179984
0.0028141
0.00423373
0.00593664
0.00782746
0.00984741
0.0118832
0.0138844
0.0157459
0.017426
0.0189434
0.0202389
0.0213201
0.022198
0.0228794
0.0234405
0.0237599
0.0239613
0.024074
0.0240105
0.0238822
0.0236048
0.023269
0.0228795
0.0224132
0.0218935
0.0213393
0.0207598
0.0201607
0.0195563
0.0189423
0.0183395
0.0177486
0.0171694
0.0166079
0.0160613
0.0155322
0.0150177
0.0145144
0.0140224
0.0135357
0.0130514
0.0125657
0.0120751
0.0115789
0.0110722
0.0105654
0.0100152
0.00956024
0.00875048
0.00585185
0.00376969
0.00234042
0.00158067
0.00113099
0.000858276
0.000823178
0.000921324
0.000987639
0.000978935
0.000883868
0.000700938
0.000423341
0.000642573
0.000856645
0.000985859
0.000991621
0.000915114
0.00071791
0.000364032
0.000637003
0.000896127
0.00100154
0.00100396
0.000893681
0.000700015
0.000459436
0.000552048
0.000654089
0.000778391
0.00107176
0.0016655
0.00255285
0.00359417
0.00475323
0.00598279
0.00724637
0.00850605
0.00972531
0.0109303
0.0119762
0.0129246
0.0138273
0.0145528
0.015214
0.0157042
0.016075
0.0163486
0.0165223
0.0166019
0.016583
0.0164917
0.0163236
0.0161033
0.015822
0.0154738
0.0150866
0.0146484
0.0141704
0.0136541
0.0130994
0.0125162
0.011902
0.011264
0.010608
0.00993751
0.00926222
0.00858746
0.0079212
0.0072706
0.00664346
0.00604445
0.00550293
0.00479443
0.00219037
0.00178276
0.00144053
0.00127779
0.00113443
0.000933862
0.000899819
0.00125365
0.00153106
0.00164209
0.00159075
0.00139752
0.00105018
0.000780411
0.00102544
0.0012371
0.00128141
0.00122342
0.00106788
0.000838953
0.000795772
0.000970171
0.00110064
0.00115763
0.00113205
0.00104483
0.00088432
0.000728169
0.000642812
0.000671642
0.000718388
0.000734571
0.000721416
0.000701696
0.000676386
0.000657839
0.000671859
0.000755689
0.000958431
0.00134608
0.00185081
0.0024268
0.0030582
0.00365951
0.00427518
0.00483778
0.00535232
0.00581677
0.00622364
0.006563
0.00681706
0.00699802
0.00709439
0.00712131
0.00707047
0.00693565
0.00674007
0.00647841
0.00616398
0.00580475
0.00540781
0.00498822
0.00455225
0.00411229
0.00367851
0.00325837
0.00286046
0.00248923
0.00214846
0.0018406
0.00156709
0.00132988
0.00113294
0.000922539
0.00284494
0.002475
0.0019881
0.00163781
0.00140965
0.00120095
0.00105414
0.00125451
0.00152396
0.00166629
0.00167199
0.00155651
0.00132595
0.00105615
0.000941818
0.0010377
0.00110271
0.00109017
0.000994169
0.000821913
0.000706529
0.00078747
0.000923669
0.00101415
0.00103745
0.00100289
0.000898527
0.000766605
0.000622428
0.000531751
0.00054855
0.000604831
0.00064672
0.000682678
0.000703892
0.000718338
0.000730851
0.000732995
0.00073058
0.000714944
0.000690507
0.000671504
0.000642888
0.000608435
0.00058153
0.000553581
0.000536103
0.00053011
0.000535712