/*--------------------------------*- C++ -*----------------------------------*\
| =========                 |                                                 |
| \\      /  F ield         | OpenFOAM: The Open Source CFD Toolbox           |
|  \\    /   O peration     | Version:  2312                                  |
|   \\  /    A nd           | Website:  www.openfoam.com                      |
|    \\/     M anipulation  |                                                 |
\*---------------------------------------------------------------------------*/
FoamFile
{
    version     2.0;
    format      ascii;
    arch        "LSB;label=32;scalar=64";
    class       volScalarField;
    location    "50";
    object      turbulenceProperties:nuEff;
}
// * * * * * * * * * * * * * * * * * * * * * * * * * * * * * * * * * * * * * //

dimensions      [0 2 -1 0 0 0 0];

internalField   nonuniform List<scalar> 
11040
(
1.80237e-05
2.51902e-05
4.66404e-05
9.1989e-05
0.000164024
0.000270676
0.000405345
0.000523755
0.000595538
0.000629399
0.000644639
0.000653019
0.000658731
0.000662585
0.000664556
0.000664513
0.000662357
0.000658098
0.000651926
0.000644255
0.000635295
0.000626272
0.000618811
0.000613018
0.000608038
0.000602816
0.000596743
0.000589941
0.00058295
0.000576447
0.000570907
0.000566184
0.000561574
0.000555774
0.000547253
0.000534847
0.000517754
0.000496081
0.000467772
0.000439332
0.000369991
1.56227e-05
1.57327e-05
1.60356e-05
1.6797e-05
1.87079e-05
2.45559e-05
4.64459e-05
9.49864e-05
0.000156906
0.000221161
0.000284578
0.000345386
0.000401895
0.000452243
0.000494886
0.000529199
0.000555619
0.000575544
0.000590812
0.000603248
0.000614536
0.000624614
0.000632362
0.000638426
0.000643646
0.000648508
0.000653336
0.000658041
0.000662552
0.000666832
0.000670804
0.000674744
0.00067873
0.000683103
0.000688153
0.000693994
0.000700834
0.000708539
0.000716631
0.000726201
0.000714808
1.61359e-05
1.61717e-05
1.61449e-05
1.61444e-05
1.62013e-05
1.6298e-05
1.64511e-05
1.67907e-05
1.76597e-05
1.9825e-05
2.42819e-05
3.41879e-05
5.34928e-05
8.36892e-05
0.000122091
0.000165729
0.000213248
0.000263795
0.000316347
0.0003696
0.000422501
0.000471492
0.000513754
0.000550239
0.000581939
0.000609782
0.000634631
0.000657273
0.000678297
0.000698156
0.000717151
0.000735456
0.000753186
0.000770468
0.00078746
0.000804321
0.000821408
0.000838996
0.000858086
0.000878156
0.000892849
1.60948e-05
1.60942e-05
1.61123e-05
1.61415e-05
1.61724e-05
1.62069e-05
1.62524e-05
1.63118e-05
1.63863e-05
1.64782e-05
1.66021e-05
1.67488e-05
1.68646e-05
1.7049e-05
1.75944e-05
1.90114e-05
2.22553e-05
2.91472e-05
4.27165e-05
6.5807e-05
9.92656e-05
0.000138609
0.000178871
0.000219737
0.000261358
0.000303563
0.000346038
0.000388502
0.000430559
0.000471912
0.00051242
0.000552047
0.000590919
0.000629385
0.00066778
0.000706384
0.000745418
0.00078594
0.000828692
0.000872972
0.000929861
1.61283e-05
1.60992e-05
1.60919e-05
1.60972e-05
1.6081e-05
1.60575e-05
1.60581e-05
1.60699e-05
1.60887e-05
1.61133e-05
1.61436e-05
1.61798e-05
1.62228e-05
1.62686e-05
1.62814e-05
1.62351e-05
1.61209e-05
1.59532e-05
1.57757e-05
1.56759e-05
1.58714e-05
1.66843e-05
1.85372e-05
2.19438e-05
2.77899e-05
3.716e-05
5.09672e-05
6.94838e-05
9.20951e-05
0.000117909
0.000146413
0.000177585
0.000211793
0.000249803
0.00029239
0.000340359
0.000394128
0.000456031
0.00052742
0.000605848
0.000729427
1.61206e-05
1.60884e-05
1.60827e-05
1.60861e-05
1.60932e-05
1.61008e-05
1.61073e-05
1.61132e-05
1.61198e-05
1.61289e-05
1.6141e-05
1.61567e-05
1.61763e-05
1.62003e-05
1.6228e-05
1.62564e-05
1.62794e-05
1.62878e-05
1.62653e-05
1.61909e-05
1.6018e-05
1.57376e-05
1.54418e-05
1.51695e-05
1.4927e-05
1.47261e-05
1.45788e-05
1.45082e-05
1.45581e-05
1.48017e-05
1.5362e-05
1.64608e-05
1.85171e-05
2.23964e-05
2.97364e-05
4.32413e-05
6.56491e-05
9.93432e-05
0.000146479
0.000201692
0.000318524
1.61149e-05
1.60893e-05
1.60812e-05
1.60811e-05
1.60835e-05
1.60857e-05
1.6085e-05
1.60793e-05
1.6072e-05
1.60694e-05
1.60701e-05
1.60728e-05
1.6077e-05
1.60829e-05
1.60903e-05
1.60993e-05
1.61098e-05
1.6122e-05
1.61356e-05
1.61498e-05
1.61611e-05
1.61603e-05
1.61452e-05
1.61177e-05
1.60762e-05
1.60198e-05
1.59446e-05
1.58437e-05
1.57074e-05
1.55249e-05
1.52854e-05
1.498e-05
1.46046e-05
1.41572e-05
1.3655e-05
1.31379e-05
1.27093e-05
1.2429e-05
1.30823e-05
1.4018e-05
3.84668e-05
1.61086e-05
1.60883e-05
1.60797e-05
1.60784e-05
1.60797e-05
1.6082e-05
1.60842e-05
1.60862e-05
1.60879e-05
1.60895e-05
1.60912e-05
1.60933e-05
1.60961e-05
1.60997e-05
1.61044e-05
1.61105e-05
1.61178e-05
1.61261e-05
1.61353e-05
1.61453e-05
1.61565e-05
1.61694e-05
1.61828e-05
1.61962e-05
1.62095e-05
1.62223e-05
1.62344e-05
1.62451e-05
1.62535e-05
1.62577e-05
1.62542e-05
1.62368e-05
1.61957e-05
1.61135e-05
1.59636e-05
1.57001e-05
1.52839e-05
1.45847e-05
1.36739e-05
1.23865e-05
1.13339e-05
1.6103e-05
1.60863e-05
1.60779e-05
1.60767e-05
1.60773e-05
1.60786e-05
1.60799e-05
1.6081e-05
1.60816e-05
1.60802e-05
1.60781e-05
1.60754e-05
1.60725e-05
1.60695e-05
1.60659e-05
1.60647e-05
1.60644e-05
1.60647e-05
1.60654e-05
1.60664e-05
1.60677e-05
1.60691e-05
1.60704e-05
1.60714e-05
1.60721e-05
1.60725e-05
1.60721e-05
1.60685e-05
1.60646e-05
1.60618e-05
1.60607e-05
1.60619e-05
1.6066e-05
1.60737e-05
1.60843e-05
1.60993e-05
1.61062e-05
1.60912e-05
1.59478e-05
1.57658e-05
1.45133e-05
1.60977e-05
1.6084e-05
1.60772e-05
1.60761e-05
1.60763e-05
1.6077e-05
1.60778e-05
1.60788e-05
1.60798e-05
1.60807e-05
1.60816e-05
1.60824e-05
1.60833e-05
1.60844e-05
1.60856e-05
1.6087e-05
1.60888e-05
1.60909e-05
1.60935e-05
1.60962e-05
1.60991e-05
1.61022e-05
1.61054e-05
1.61089e-05
1.61125e-05
1.61163e-05
1.61202e-05
1.61241e-05
1.61279e-05
1.61316e-05
1.61349e-05
1.61378e-05
1.61403e-05
1.61425e-05
1.61449e-05
1.61493e-05
1.61563e-05
1.61748e-05
1.61932e-05
1.62656e-05
1.62312e-05
1.60929e-05
1.60816e-05
1.60765e-05
1.60755e-05
1.60755e-05
1.60758e-05
1.60764e-05
1.6077e-05
1.60777e-05
1.60783e-05
1.60789e-05
1.60794e-05
1.60798e-05
1.608e-05
1.60798e-05
1.60789e-05
1.60778e-05
1.60765e-05
1.60751e-05
1.60736e-05
1.6072e-05
1.60706e-05
1.60692e-05
1.60679e-05
1.60667e-05
1.60659e-05
1.6065e-05
1.60647e-05
1.60661e-05
1.60683e-05
1.6071e-05
1.60741e-05
1.60775e-05
1.60812e-05
1.60853e-05
1.60898e-05
1.60947e-05
1.61008e-05
1.61102e-05
1.61225e-05
1.61713e-05
1.60887e-05
1.60793e-05
1.60755e-05
1.60745e-05
1.60745e-05
1.60749e-05
1.60753e-05
1.60758e-05
1.60764e-05
1.6077e-05
1.60776e-05
1.60783e-05
1.60789e-05
1.60796e-05
1.60802e-05
1.6081e-05
1.60818e-05
1.60827e-05
1.60838e-05
1.6085e-05
1.60864e-05
1.6088e-05
1.60897e-05
1.60915e-05
1.60933e-05
1.60952e-05
1.60972e-05
1.60991e-05
1.61012e-05
1.61032e-05
1.61053e-05
1.61073e-05
1.61092e-05
1.61109e-05
1.61126e-05
1.6114e-05
1.61153e-05
1.61164e-05
1.61175e-05
1.61176e-05
1.61214e-05
1.60852e-05
1.60774e-05
1.60743e-05
1.60735e-05
1.60735e-05
1.60739e-05
1.60744e-05
1.60749e-05
1.60754e-05
1.6076e-05
1.60765e-05
1.60771e-05
1.60776e-05
1.60781e-05
1.60787e-05
1.60792e-05
1.60797e-05
1.60803e-05
1.60809e-05
1.60815e-05
1.60821e-05
1.60829e-05
1.60837e-05
1.60845e-05
1.60853e-05
1.60862e-05
1.60871e-05
1.60881e-05
1.6089e-05
1.60901e-05
1.60912e-05
1.60925e-05
1.60938e-05
1.60953e-05
1.6097e-05
1.60989e-05
1.6101e-05
1.61034e-05
1.61058e-05
1.61087e-05
1.61105e-05
1.60823e-05
1.6076e-05
1.60733e-05
1.60726e-05
1.60726e-05
1.6073e-05
1.60735e-05
1.6074e-05
1.60746e-05
1.60751e-05
1.60757e-05
1.60762e-05
1.60768e-05
1.60773e-05
1.60779e-05
1.60784e-05
1.6079e-05
1.60797e-05
1.60804e-05
1.60811e-05
1.6082e-05
1.60829e-05
1.60839e-05
1.60849e-05
1.6086e-05
1.60872e-05
1.60883e-05
1.60896e-05
1.60909e-05
1.60923e-05
1.60937e-05
1.60951e-05
1.60964e-05
1.60977e-05
1.6099e-05
1.61002e-05
1.61014e-05
1.61027e-05
1.61038e-05
1.61054e-05
1.61062e-05
1.608e-05
1.6075e-05
1.60728e-05
1.6072e-05
1.6072e-05
1.60722e-05
1.60726e-05
1.60731e-05
1.60737e-05
1.60742e-05
1.60748e-05
1.60754e-05
1.60759e-05
1.60765e-05
1.6077e-05
1.60775e-05
1.60781e-05
1.60787e-05
1.60793e-05
1.60799e-05
1.60806e-05
1.60813e-05
1.60821e-05
1.60829e-05
1.60837e-05
1.60845e-05
1.60854e-05
1.60863e-05
1.60873e-05
1.60883e-05
1.60894e-05
1.60905e-05
1.60916e-05
1.60928e-05
1.6094e-05
1.60952e-05
1.60965e-05
1.60979e-05
1.60991e-05
1.61008e-05
1.61018e-05
1.60783e-05
1.60744e-05
1.60725e-05
1.60719e-05
1.60717e-05
1.60717e-05
1.60719e-05
1.60723e-05
1.60727e-05
1.60732e-05
1.60738e-05
1.60744e-05
1.60749e-05
1.60755e-05
1.60761e-05
1.60766e-05
1.60772e-05
1.60778e-05
1.60783e-05
1.6079e-05
1.60796e-05
1.60804e-05
1.60811e-05
1.60819e-05
1.60827e-05
1.60835e-05
1.60843e-05
1.60852e-05
1.60861e-05
1.60871e-05
1.6088e-05
1.6089e-05
1.60901e-05
1.60911e-05
1.60922e-05
1.60933e-05
1.60944e-05
1.60956e-05
1.60966e-05
1.60979e-05
1.60988e-05
1.60769e-05
1.60738e-05
1.60726e-05
1.60721e-05
1.60718e-05
1.60716e-05
1.60716e-05
1.60717e-05
1.60719e-05
1.60722e-05
1.60727e-05
1.60731e-05
1.60736e-05
1.60742e-05
1.60747e-05
1.60752e-05
1.60756e-05
1.60761e-05
1.60766e-05
1.6077e-05
1.60775e-05
1.6078e-05
1.60786e-05
1.60791e-05
1.60796e-05
1.60802e-05
1.60808e-05
1.60814e-05
1.60821e-05
1.60828e-05
1.60835e-05
1.60842e-05
1.60849e-05
1.60857e-05
1.60865e-05
1.60872e-05
1.6088e-05
1.60889e-05
1.60897e-05
1.60907e-05
1.60915e-05
1.60758e-05
1.60736e-05
1.60729e-05
1.60726e-05
1.60723e-05
1.6072e-05
1.60717e-05
1.60716e-05
1.60715e-05
1.60716e-05
1.60718e-05
1.60722e-05
1.60725e-05
1.6073e-05
1.60734e-05
1.60738e-05
1.60742e-05
1.60746e-05
1.6075e-05
1.60754e-05
1.60757e-05
1.60761e-05
1.60764e-05
1.60768e-05
1.60771e-05
1.60775e-05
1.60779e-05
1.60783e-05
1.60787e-05
1.60792e-05
1.60796e-05
1.60802e-05
1.60807e-05
1.60812e-05
1.60818e-05
1.60823e-05
1.60829e-05
1.60835e-05
1.6084e-05
1.60847e-05
1.60852e-05
1.60748e-05
1.60734e-05
1.6073e-05
1.6073e-05
1.60728e-05
1.60725e-05
1.60722e-05
1.60719e-05
1.60717e-05
1.60716e-05
1.60716e-05
1.60717e-05
1.60719e-05
1.60722e-05
1.60725e-05
1.60729e-05
1.60733e-05
1.60737e-05
1.60741e-05
1.60745e-05
1.60748e-05
1.60752e-05
1.60755e-05
1.60758e-05
1.6076e-05
1.60763e-05
1.60766e-05
1.60769e-05
1.60772e-05
1.60776e-05
1.60779e-05
1.60783e-05
1.60787e-05
1.60791e-05
1.60795e-05
1.608e-05
1.60804e-05
1.60809e-05
1.60813e-05
1.60818e-05
1.60823e-05
1.60741e-05
1.60729e-05
1.60728e-05
1.60729e-05
1.6073e-05
1.60729e-05
1.60727e-05
1.60724e-05
1.60721e-05
1.60719e-05
1.60717e-05
1.60716e-05
1.60716e-05
1.60718e-05
1.6072e-05
1.60722e-05
1.60726e-05
1.60729e-05
1.60733e-05
1.60736e-05
1.6074e-05
1.60743e-05
1.60746e-05
1.60749e-05
1.60752e-05
1.60755e-05
1.60757e-05
1.6076e-05
1.60762e-05
1.60765e-05
1.60767e-05
1.6077e-05
1.60773e-05
1.60777e-05
1.6078e-05
1.60783e-05
1.60787e-05
1.6079e-05
1.60794e-05
1.60798e-05
1.60801e-05
1.60734e-05
1.60723e-05
1.60722e-05
1.60724e-05
1.60727e-05
1.60728e-05
1.60729e-05
1.60727e-05
1.60725e-05
1.60723e-05
1.60721e-05
1.60719e-05
1.60717e-05
1.60717e-05
1.60717e-05
1.60718e-05
1.6072e-05
1.60723e-05
1.60726e-05
1.60729e-05
1.60732e-05
1.60735e-05
1.60739e-05
1.60741e-05
1.60744e-05
1.60747e-05
1.60749e-05
1.60751e-05
1.60753e-05
1.60756e-05
1.60758e-05
1.6076e-05
1.60762e-05
1.60765e-05
1.60767e-05
1.6077e-05
1.60772e-05
1.60775e-05
1.60778e-05
1.60781e-05
1.60784e-05
1.6073e-05
1.60718e-05
1.60715e-05
1.60717e-05
1.6072e-05
1.60724e-05
1.60726e-05
1.60727e-05
1.60727e-05
1.60726e-05
1.60724e-05
1.60722e-05
1.6072e-05
1.60719e-05
1.60718e-05
1.60718e-05
1.60718e-05
1.60719e-05
1.60721e-05
1.60723e-05
1.60726e-05
1.60729e-05
1.60732e-05
1.60735e-05
1.60737e-05
1.6074e-05
1.60742e-05
1.60744e-05
1.60746e-05
1.60748e-05
1.6075e-05
1.60752e-05
1.60753e-05
1.60755e-05
1.60757e-05
1.60759e-05
1.60761e-05
1.60763e-05
1.60765e-05
1.60767e-05
1.6077e-05
1.60728e-05
1.60716e-05
1.60712e-05
1.60711e-05
1.60713e-05
1.60716e-05
1.6072e-05
1.60723e-05
1.60725e-05
1.60725e-05
1.60725e-05
1.60725e-05
1.60723e-05
1.60722e-05
1.6072e-05
1.60719e-05
1.60718e-05
1.60718e-05
1.60719e-05
1.6072e-05
1.60722e-05
1.60724e-05
1.60726e-05
1.60729e-05
1.60731e-05
1.60733e-05
1.60736e-05
1.60738e-05
1.6074e-05
1.60742e-05
1.60743e-05
1.60745e-05
1.60746e-05
1.60748e-05
1.60749e-05
1.60751e-05
1.60752e-05
1.60754e-05
1.60755e-05
1.60757e-05
1.60759e-05
1.60727e-05
1.60718e-05
1.60712e-05
1.60708e-05
1.60708e-05
1.60709e-05
1.60712e-05
1.60716e-05
1.60719e-05
1.60721e-05
1.60723e-05
1.60724e-05
1.60724e-05
1.60723e-05
1.60722e-05
1.60721e-05
1.6072e-05
1.60719e-05
1.60719e-05
1.60719e-05
1.6072e-05
1.60721e-05
1.60722e-05
1.60724e-05
1.60726e-05
1.60728e-05
1.6073e-05
1.60732e-05
1.60734e-05
1.60736e-05
1.60737e-05
1.60739e-05
1.6074e-05
1.60741e-05
1.60742e-05
1.60744e-05
1.60745e-05
1.60746e-05
1.60747e-05
1.60748e-05
1.6075e-05
1.60728e-05
1.60721e-05
1.60715e-05
1.6071e-05
1.60707e-05
1.60706e-05
1.60707e-05
1.6071e-05
1.60713e-05
1.60716e-05
1.60718e-05
1.60721e-05
1.60722e-05
1.60723e-05
1.60723e-05
1.60723e-05
1.60722e-05
1.60721e-05
1.6072e-05
1.6072e-05
1.6072e-05
1.6072e-05
1.6072e-05
1.60721e-05
1.60723e-05
1.60724e-05
1.60726e-05
1.60727e-05
1.60729e-05
1.60731e-05
1.60732e-05
1.60733e-05
1.60735e-05
1.60736e-05
1.60737e-05
1.60738e-05
1.60739e-05
1.6074e-05
1.60741e-05
1.60741e-05
1.60742e-05
1.60729e-05
1.60725e-05
1.6072e-05
1.60716e-05
1.60712e-05
1.60709e-05
1.60708e-05
1.60708e-05
1.60709e-05
1.60711e-05
1.60713e-05
1.60716e-05
1.60718e-05
1.6072e-05
1.60721e-05
1.60722e-05
1.60722e-05
1.60722e-05
1.60721e-05
1.60721e-05
1.6072e-05
1.6072e-05
1.6072e-05
1.6072e-05
1.60721e-05
1.60722e-05
1.60723e-05
1.60724e-05
1.60725e-05
1.60726e-05
1.60728e-05
1.60729e-05
1.6073e-05
1.60731e-05
1.60732e-05
1.60733e-05
1.60733e-05
1.60734e-05
1.60735e-05
1.60735e-05
1.60736e-05
1.60729e-05
1.60728e-05
1.60726e-05
1.60723e-05
1.6072e-05
1.60717e-05
1.60713e-05
1.60711e-05
1.6071e-05
1.6071e-05
1.60711e-05
1.60713e-05
1.60715e-05
1.60717e-05
1.60718e-05
1.6072e-05
1.60721e-05
1.60722e-05
1.60722e-05
1.60722e-05
1.60721e-05
1.60721e-05
1.6072e-05
1.6072e-05
1.6072e-05
1.60721e-05
1.60721e-05
1.60722e-05
1.60722e-05
1.60723e-05
1.60724e-05
1.60725e-05
1.60726e-05
1.60727e-05
1.60727e-05
1.60728e-05
1.60729e-05
1.6073e-05
1.6073e-05
1.6073e-05
1.60731e-05
1.60729e-05
1.60729e-05
1.60729e-05
1.60729e-05
1.60727e-05
1.60725e-05
1.60722e-05
1.60719e-05
1.60716e-05
1.60713e-05
1.60712e-05
1.60712e-05
1.60713e-05
1.60714e-05
1.60716e-05
1.60717e-05
1.60719e-05
1.6072e-05
1.60721e-05
1.60721e-05
1.60721e-05
1.60721e-05
1.60721e-05
1.60721e-05
1.60721e-05
1.6072e-05
1.6072e-05
1.6072e-05
1.60721e-05
1.60721e-05
1.60722e-05
1.60722e-05
1.60723e-05
1.60723e-05
1.60724e-05
1.60724e-05
1.60725e-05
1.60726e-05
1.60726e-05
1.60726e-05
1.60727e-05
1.60727e-05
1.60728e-05
1.60729e-05
1.60731e-05
1.60732e-05
1.60731e-05
1.60729e-05
1.60727e-05
1.60724e-05
1.60721e-05
1.60718e-05
1.60716e-05
1.60715e-05
1.60714e-05
1.60715e-05
1.60716e-05
1.60717e-05
1.60718e-05
1.60719e-05
1.6072e-05
1.60721e-05
1.60721e-05
1.60721e-05
1.60721e-05
1.60721e-05
1.60721e-05
1.6072e-05
1.6072e-05
1.6072e-05
1.6072e-05
1.6072e-05
1.6072e-05
1.60721e-05
1.60721e-05
1.60721e-05
1.60722e-05
1.60722e-05
1.60722e-05
1.60723e-05
1.60723e-05
1.60723e-05
1.60725e-05
1.60725e-05
1.60727e-05
1.6073e-05
1.60732e-05
1.60734e-05
1.60734e-05
1.60733e-05
1.60731e-05
1.60728e-05
1.60726e-05
1.60723e-05
1.6072e-05
1.60718e-05
1.60717e-05
1.60716e-05
1.60717e-05
1.60717e-05
1.60718e-05
1.60719e-05
1.6072e-05
1.6072e-05
1.60721e-05
1.60721e-05
1.60721e-05
1.60721e-05
1.60721e-05
1.60721e-05
1.6072e-05
1.6072e-05
1.6072e-05
1.60719e-05
1.60719e-05
1.60719e-05
1.60719e-05
1.60719e-05
1.6072e-05
1.6072e-05
1.6072e-05
1.6072e-05
1.6072e-05
1.60723e-05
1.60722e-05
1.60723e-05
1.60726e-05
1.60729e-05
1.60732e-05
1.60734e-05
1.60735e-05
1.60734e-05
1.60733e-05
1.60732e-05
1.60729e-05
1.60727e-05
1.60724e-05
1.60722e-05
1.6072e-05
1.60719e-05
1.60718e-05
1.60718e-05
1.60719e-05
1.60719e-05
1.6072e-05
1.6072e-05
1.60721e-05
1.60721e-05
1.60721e-05
1.60721e-05
1.60721e-05
1.60721e-05
1.6072e-05
1.6072e-05
1.6072e-05
1.60719e-05
1.60719e-05
1.60718e-05
1.60718e-05
1.60718e-05
1.60718e-05
1.60718e-05
1.60718e-05
1.60718e-05
1.60721e-05
1.60719e-05
1.60719e-05
1.60721e-05
1.60724e-05
1.60727e-05
1.6073e-05
1.60732e-05
1.60734e-05
1.60734e-05
1.60734e-05
1.60733e-05
1.60732e-05
1.6073e-05
1.60727e-05
1.60725e-05
1.60724e-05
1.60722e-05
1.60721e-05
1.6072e-05
1.6072e-05
1.6072e-05
1.60721e-05
1.60721e-05
1.60722e-05
1.60722e-05
1.60722e-05
1.60722e-05
1.60722e-05
1.60722e-05
1.60721e-05
1.60721e-05
1.6072e-05
1.60719e-05
1.60719e-05
1.60718e-05
1.60718e-05
1.60717e-05
1.60717e-05
1.60717e-05
1.60716e-05
1.60721e-05
1.60718e-05
1.60716e-05
1.60717e-05
1.60719e-05
1.60721e-05
1.60724e-05
1.60727e-05
1.6073e-05
1.60732e-05
1.60733e-05
1.60734e-05
1.60734e-05
1.60733e-05
1.60731e-05
1.6073e-05
1.60728e-05
1.60726e-05
1.60725e-05
1.60723e-05
1.60722e-05
1.60722e-05
1.60722e-05
1.60722e-05
1.60722e-05
1.60722e-05
1.60723e-05
1.60723e-05
1.60723e-05
1.60723e-05
1.60723e-05
1.60722e-05
1.60722e-05
1.60721e-05
1.6072e-05
1.6072e-05
1.60719e-05
1.60718e-05
1.60718e-05
1.60717e-05
1.60717e-05
1.60721e-05
1.60718e-05
1.60716e-05
1.60715e-05
1.60716e-05
1.60717e-05
1.60719e-05
1.60721e-05
1.60724e-05
1.60727e-05
1.60729e-05
1.60731e-05
1.60732e-05
1.60733e-05
1.60733e-05
1.60732e-05
1.60731e-05
1.6073e-05
1.60728e-05
1.60727e-05
1.60725e-05
1.60724e-05
1.60724e-05
1.60723e-05
1.60723e-05
1.60723e-05
1.60723e-05
1.60724e-05
1.60724e-05
1.60724e-05
1.60724e-05
1.60724e-05
1.60724e-05
1.60724e-05
1.60723e-05
1.60722e-05
1.60722e-05
1.60721e-05
1.6072e-05
1.6072e-05
1.60719e-05
1.60721e-05
1.6072e-05
1.60718e-05
1.60717e-05
1.60716e-05
1.60715e-05
1.60716e-05
1.60717e-05
1.60719e-05
1.60721e-05
1.60724e-05
1.60726e-05
1.60729e-05
1.6073e-05
1.60731e-05
1.60732e-05
1.60732e-05
1.60731e-05
1.6073e-05
1.60729e-05
1.60728e-05
1.60727e-05
1.60726e-05
1.60725e-05
1.60725e-05
1.60724e-05
1.60724e-05
1.60724e-05
1.60724e-05
1.60725e-05
1.60725e-05
1.60725e-05
1.60725e-05
1.60725e-05
1.60725e-05
1.60725e-05
1.60724e-05
1.60724e-05
1.60723e-05
1.60723e-05
1.60722e-05
1.60721e-05
1.60721e-05
1.60721e-05
1.60719e-05
1.60718e-05
1.60717e-05
1.60716e-05
1.60716e-05
1.60716e-05
1.60718e-05
1.60719e-05
1.60722e-05
1.60724e-05
1.60726e-05
1.60728e-05
1.60729e-05
1.6073e-05
1.60731e-05
1.60731e-05
1.6073e-05
1.6073e-05
1.60729e-05
1.60728e-05
1.60727e-05
1.60726e-05
1.60725e-05
1.60725e-05
1.60725e-05
1.60725e-05
1.60725e-05
1.60725e-05
1.60726e-05
1.60726e-05
1.60726e-05
1.60726e-05
1.60726e-05
1.60726e-05
1.60726e-05
1.60726e-05
1.60725e-05
1.60725e-05
1.6072e-05
1.60722e-05
1.60722e-05
1.60722e-05
1.60721e-05
1.6072e-05
1.60718e-05
1.60717e-05
1.60717e-05
1.60717e-05
1.60717e-05
1.60718e-05
1.6072e-05
1.60722e-05
1.60723e-05
1.60725e-05
1.60727e-05
1.60728e-05
1.60729e-05
1.60729e-05
1.6073e-05
1.60729e-05
1.60729e-05
1.60728e-05
1.60727e-05
1.60727e-05
1.60726e-05
1.60725e-05
1.60725e-05
1.60725e-05
1.60725e-05
1.60725e-05
1.60726e-05
1.60726e-05
1.60726e-05
1.60726e-05
1.60727e-05
1.60727e-05
1.60727e-05
1.60726e-05
1.60726e-05
1.60718e-05
1.60721e-05
1.60722e-05
1.60723e-05
1.60723e-05
1.60722e-05
1.60721e-05
1.6072e-05
1.60719e-05
1.60718e-05
1.60717e-05
1.60717e-05
1.60717e-05
1.60718e-05
1.6072e-05
1.60721e-05
1.60723e-05
1.60724e-05
1.60726e-05
1.60727e-05
1.60728e-05
1.60728e-05
1.60728e-05
1.60728e-05
1.60727e-05
1.60727e-05
1.60726e-05
1.60726e-05
1.60725e-05
1.60725e-05
1.60725e-05
1.60725e-05
1.60725e-05
1.60725e-05
1.60726e-05
1.60726e-05
1.60726e-05
1.60726e-05
1.60726e-05
1.60726e-05
1.60727e-05
1.60715e-05
1.60718e-05
1.6072e-05
1.60721e-05
1.60722e-05
1.60722e-05
1.60722e-05
1.60721e-05
1.6072e-05
1.60719e-05
1.60718e-05
1.60717e-05
1.60717e-05
1.60717e-05
1.60717e-05
1.60718e-05
1.60719e-05
1.6072e-05
1.60722e-05
1.60723e-05
1.60724e-05
1.60725e-05
1.60726e-05
1.60726e-05
1.60726e-05
1.60726e-05
1.60725e-05
1.60725e-05
1.60725e-05
1.60724e-05
1.60724e-05
1.60724e-05
1.60724e-05
1.60724e-05
1.60724e-05
1.60724e-05
1.60725e-05
1.60725e-05
1.60725e-05
1.60725e-05
1.60726e-05
1.60712e-05
1.60713e-05
1.60715e-05
1.60717e-05
1.60718e-05
1.60719e-05
1.6072e-05
1.6072e-05
1.6072e-05
1.60719e-05
1.60718e-05
1.60718e-05
1.60717e-05
1.60716e-05
1.60716e-05
1.60716e-05
1.60716e-05
1.60717e-05
1.60718e-05
1.60719e-05
1.6072e-05
1.60721e-05
1.60722e-05
1.60723e-05
1.60723e-05
1.60723e-05
1.60723e-05
1.60723e-05
1.60723e-05
1.60723e-05
1.60723e-05
1.60722e-05
1.60722e-05
1.60722e-05
1.60722e-05
1.60722e-05
1.60723e-05
1.60723e-05
1.60723e-05
1.60723e-05
1.60724e-05
1.60708e-05
1.60709e-05
1.6071e-05
1.60711e-05
1.60713e-05
1.60714e-05
1.60715e-05
1.60716e-05
1.60717e-05
1.60717e-05
1.60717e-05
1.60716e-05
1.60716e-05
1.60715e-05
1.60715e-05
1.60714e-05
1.60714e-05
1.60714e-05
1.60715e-05
1.60715e-05
1.60716e-05
1.60717e-05
1.60718e-05
1.60718e-05
1.60719e-05
1.6072e-05
1.6072e-05
1.6072e-05
1.6072e-05
1.6072e-05
1.6072e-05
1.6072e-05
1.6072e-05
1.6072e-05
1.6072e-05
1.6072e-05
1.6072e-05
1.6072e-05
1.6072e-05
1.60721e-05
1.60721e-05
1.60705e-05
1.60705e-05
1.60705e-05
1.60706e-05
1.60707e-05
1.60708e-05
1.60709e-05
1.6071e-05
1.60711e-05
1.60712e-05
1.60713e-05
1.60713e-05
1.60713e-05
1.60713e-05
1.60712e-05
1.60712e-05
1.60711e-05
1.60711e-05
1.60711e-05
1.60711e-05
1.60712e-05
1.60712e-05
1.60713e-05
1.60713e-05
1.60714e-05
1.60715e-05
1.60715e-05
1.60716e-05
1.60716e-05
1.60716e-05
1.60716e-05
1.60716e-05
1.60716e-05
1.60716e-05
1.60716e-05
1.60716e-05
1.60716e-05
1.60716e-05
1.60716e-05
1.60717e-05
1.60717e-05
1.60702e-05
1.60702e-05
1.60701e-05
1.60701e-05
1.60702e-05
1.60702e-05
1.60703e-05
1.60704e-05
1.60705e-05
1.60706e-05
1.60707e-05
1.60707e-05
1.60708e-05
1.60708e-05
1.60708e-05
1.60708e-05
1.60708e-05
1.60707e-05
1.60707e-05
1.60707e-05
1.60707e-05
1.60707e-05
1.60708e-05
1.60708e-05
1.60708e-05
1.60709e-05
1.6071e-05
1.6071e-05
1.6071e-05
1.60711e-05
1.60711e-05
1.60711e-05
1.60711e-05
1.60711e-05
1.60711e-05
1.60711e-05
1.60711e-05
1.60711e-05
1.60711e-05
1.60711e-05
1.60712e-05
1.60698e-05
1.60699e-05
1.60698e-05
1.60698e-05
1.60698e-05
1.60698e-05
1.60698e-05
1.60698e-05
1.60699e-05
1.607e-05
1.607e-05
1.60701e-05
1.60702e-05
1.60702e-05
1.60702e-05
1.60702e-05
1.60702e-05
1.60702e-05
1.60702e-05
1.60702e-05
1.60702e-05
1.60701e-05
1.60702e-05
1.60702e-05
1.60702e-05
1.60702e-05
1.60703e-05
1.60703e-05
1.60704e-05
1.60704e-05
1.60704e-05
1.60704e-05
1.60705e-05
1.60705e-05
1.60705e-05
1.60705e-05
1.60705e-05
1.60705e-05
1.60705e-05
1.60705e-05
1.60705e-05
1.60695e-05
1.60695e-05
1.60695e-05
1.60695e-05
1.60694e-05
1.60694e-05
1.60694e-05
1.60694e-05
1.60694e-05
1.60694e-05
1.60694e-05
1.60695e-05
1.60695e-05
1.60695e-05
1.60696e-05
1.60696e-05
1.60696e-05
1.60696e-05
1.60696e-05
1.60695e-05
1.60695e-05
1.60695e-05
1.60695e-05
1.60695e-05
1.60694e-05
1.60695e-05
1.60695e-05
1.60695e-05
1.60695e-05
1.60696e-05
1.60696e-05
1.60696e-05
1.60696e-05
1.60696e-05
1.60697e-05
1.60697e-05
1.60697e-05
1.60697e-05
1.60697e-05
1.60697e-05
1.60697e-05
1.6069e-05
1.60691e-05
1.60691e-05
1.60691e-05
1.60691e-05
1.6069e-05
1.6069e-05
1.6069e-05
1.6069e-05
1.60689e-05
1.60689e-05
1.60689e-05
1.60689e-05
1.60689e-05
1.60689e-05
1.60689e-05
1.60689e-05
1.60689e-05
1.60689e-05
1.60688e-05
1.60688e-05
1.60687e-05
1.60687e-05
1.60687e-05
1.60686e-05
1.60686e-05
1.60686e-05
1.60686e-05
1.60686e-05
1.60687e-05
1.60687e-05
1.60687e-05
1.60687e-05
1.60688e-05
1.60688e-05
1.60688e-05
1.60689e-05
1.60689e-05
1.60689e-05
1.60689e-05
1.6069e-05
1.60685e-05
1.60686e-05
1.60686e-05
1.60686e-05
1.60686e-05
1.60686e-05
1.60685e-05
1.60685e-05
1.60685e-05
1.60685e-05
1.60684e-05
1.60684e-05
1.60684e-05
1.60683e-05
1.60683e-05
1.60683e-05
1.60682e-05
1.60682e-05
1.60682e-05
1.60682e-05
1.60681e-05
1.60681e-05
1.60681e-05
1.60681e-05
1.60681e-05
1.60681e-05
1.60681e-05
1.60682e-05
1.60682e-05
1.60682e-05
1.60682e-05
1.60683e-05
1.60683e-05
1.60683e-05
1.60683e-05
1.60684e-05
1.60684e-05
1.60684e-05
1.60684e-05
1.60684e-05
1.60684e-05
1.60679e-05
1.60679e-05
1.6068e-05
1.6068e-05
1.6068e-05
1.6068e-05
1.6068e-05
1.6068e-05
1.6068e-05
1.6068e-05
1.60679e-05
1.60679e-05
1.60679e-05
1.60679e-05
1.60678e-05
1.60678e-05
1.60677e-05
1.60677e-05
1.60678e-05
1.60678e-05
1.60679e-05
1.6068e-05
1.60681e-05
1.60681e-05
1.60682e-05
1.60683e-05
1.60684e-05
1.60685e-05
1.60686e-05
1.60687e-05
1.60688e-05
1.60689e-05
1.60689e-05
1.6069e-05
1.6069e-05
1.60691e-05
1.60691e-05
1.60691e-05
1.60691e-05
1.60691e-05
1.60691e-05
0.000561648
0.000783356
0.000939749
0.00104417
0.00111799
0.00117271
0.00121655
0.00125353
0.00128455
0.00130997
0.0013303
0.00134672
0.00136056
0.00137245
0.00138269
0.00139136
0.00139981
0.00141282
0.00143822
0.00148649
0.00156459
0.00167102
0.00179773
0.00193177
0.00206066
0.00217564
0.00227285
0.00235116
0.00241067
0.00245221
0.00247712
0.00248697
0.00248399
0.0024708
0.00245264
0.00243275
0.00240856
0.00237984
0.00234737
0.00231328
0.00227824
0.00224057
0.00219876
0.00215343
0.00210512
0.00205414
0.00200081
0.00194394
0.00188296
0.00181885
0.00175175
0.00168219
0.00161054
0.00153723
0.00146268
0.00138826
0.00131372
0.00123942
0.00116553
0.00109187
0.00101816
0.000943665
0.000868096
0.00079092
0.000711994
0.000631528
0.000550095
0.000468944
0.000389663
0.000314097
0.000244122
0.000180476
0.000126577
5.90343e-05
0.000865928
0.000986843
0.00107049
0.00112845
0.00117048
0.00120268
0.00122952
0.00125256
0.00127211
0.00128856
0.00129985
0.00130932
0.00131636
0.00132088
0.00132564
0.0013296
0.00133426
0.00134265
0.00135949
0.00139802
0.00146126
0.00155544
0.00167429
0.00180663
0.00194005
0.00206501
0.00217469
0.00226636
0.00233908
0.00239338
0.0024304
0.0024515
0.00245878
0.00245456
0.00244191
0.00242301
0.00239784
0.00236665
0.00233093
0.00229591
0.00226572
0.00223505
0.00220103
0.00216431
0.00212623
0.0020886
0.00205113
0.0020124
0.00197128
0.00192789
0.00188256
0.00183527
0.00178651
0.00173651
0.00168558
0.00163503
0.00158435
0.00153403
0.00148427
0.00143486
0.00138583
0.00133628
0.00128593
0.00123388
0.00117916
0.00112099
0.00105831
0.000990518
0.000917179
0.000838199
0.000754604
0.000664816
0.000585435
0.000445401
0.000972601
0.00103402
0.00107033
0.00109091
0.00110109
0.00110842
0.00111634
0.00112438
0.00113246
0.00114137
0.00114539
0.00115056
0.00115345
0.00115202
0.00115286
0.00115315
0.00115552
0.00116118
0.00117004
0.00119819
0.00124162
0.00131634
0.0014194
0.00154413
0.00167925
0.00181607
0.00194359
0.00205714
0.0021538
0.00223274
0.00229429
0.00233942
0.00236982
0.00238725
0.00239403
0.00239208
0.00238183
0.00236425
0.0023404
0.00231287
0.00228367
0.00225124
0.00221305
0.00217099
0.0021285
0.00209333
0.00206152
0.00203024
0.0019978
0.00196371
0.00192815
0.001891
0.00185302
0.00181494
0.00177698
0.00173965
0.00170279
0.00166664
0.00163143
0.00159722
0.00156424
0.00153222
0.00150116
0.00147069
0.00144033
0.0014095
0.00137731
0.00134284
0.00130506
0.00126268
0.00121562
0.00115782
0.00110982
0.000986804
0.000935681
0.000924883
0.00090291
0.000879295
0.000855491
0.000836413
0.000823467
0.000814631
0.000809395
0.000808643
0.000805331
0.000805707
0.000805081
0.000799367
0.000797112
0.000794518
0.000795333
0.000799897
0.000804057
0.000824072
0.000848949
0.000901119
0.000981328
0.00108955
0.00121766
0.00136098
0.00150472
0.0016426
0.00176919
0.00188125
0.00197729
0.00205707
0.00212169
0.00217184
0.00221011
0.00223851
0.00225677
0.00226668
0.00226861
0.00226579
0.00225694
0.00224223
0.00222149
0.002195
0.0021644
0.00213239
0.00209941
0.00206446
0.00202686
0.00198687
0.00194509
0.00190104
0.00185835
0.00181948
0.00178277
0.00174734
0.00171265
0.00167856
0.00164517
0.00161261
0.00158113
0.00155084
0.00152189
0.00149438
0.00146837
0.00144376
0.0014204
0.00139807
0.00137659
0.00135544
0.00133507
0.00131138
0.00129525
0.00124721
0.00068815
0.00062929
0.000570869
0.000520045
0.000476544
0.000441329
0.000413681
0.000391473
0.000373883
0.000361149
0.000349076
0.000340597
0.000332923
0.000322901
0.000315268
0.000307952
0.00030343
0.000302154
0.000301061
0.000308115
0.000315132
0.000336043
0.000376028
0.000442925
0.000538207
0.000664397
0.000806965
0.000957363
0.00110703
0.0012498
0.00138163
0.00150036
0.00160599
0.00169717
0.00177653
0.00184602
0.00190366
0.00195205
0.00199075
0.00202558
0.00205082
0.00206758
0.00208028
0.00208493
0.0020842
0.00207815
0.00206697
0.0020511
0.00203078
0.00200644
0.00197832
0.00194668
0.00191244
0.00187658
0.0018397
0.00180241
0.00176462
0.00172663
0.00168863
0.00165081
0.00161343
0.00157654
0.00154029
0.00150472
0.00146987
0.00143564
0.00140188
0.00136839
0.00133505
0.00130164
0.0012685
0.00123371
0.00120528
0.00114372
0.000289709
0.000244574
0.000201417
0.000164095
0.000132317
0.000105574
8.31297e-05
6.43648e-05
4.92137e-05
3.78028e-05
2.90522e-05
2.31011e-05
1.89599e-05
1.59282e-05
1.40212e-05
1.27539e-05
1.1968e-05
1.15092e-05
1.11786e-05
1.10826e-05
1.09673e-05
1.10001e-05
1.12507e-05
1.22778e-05
1.68803e-05
3.94609e-05
9.49604e-05
0.000173102
0.00026895
0.000383308
0.000510762
0.000643895
0.000776199
0.000900572
0.001017
0.00112594
0.00122367
0.00131314
0.00139287
0.00147136
0.00153797
0.00159424
0.00164902
0.00169348
0.00173239
0.00176369
0.00178643
0.00180223
0.00181238
0.00181744
0.00181589
0.00180944
0.00179784
0.0017821
0.00176261
0.00173916
0.00171277
0.00168368
0.00165215
0.00161862
0.00158311
0.00154603
0.00150735
0.00146717
0.00142564
0.00138269
0.00133843
0.00129285
0.00124599
0.00119795
0.00114907
0.00109875
0.00105407
0.000974353
2.88353e-05
1.88452e-05
1.37749e-05
1.17105e-05
1.09023e-05
1.0573e-05
1.04336e-05
1.03803e-05
1.03744e-05
1.0402e-05
1.04597e-05
1.05478e-05
1.0671e-05
1.08387e-05
1.1051e-05
1.13137e-05
1.1622e-05
1.19699e-05
1.23563e-05
1.27478e-05
1.31626e-05
1.35623e-05
1.39436e-05
1.42641e-05
1.43995e-05
1.42022e-05
1.35409e-05
1.26334e-05
1.19998e-05
1.22844e-05
1.51818e-05
2.81336e-05
6.44161e-05
0.000119207
0.000183988
0.000257793
0.000338534
0.000425424
0.00051485
0.000610145
0.00070041
0.000784005
0.000869126
0.000945354
0.00101762
0.00108227
0.00113685
0.00118334
0.00122344
0.00125769
0.00128238
0.00130041
0.00131057
0.00131452
0.00131218
0.00130164
0.00128519
0.00126247
0.00123353
0.00119923
0.00115897
0.00111403
0.00106413