/*--------------------------------*- C++ -*----------------------------------*\
| =========                 |                                                 |
| \\      /  F ield         | OpenFOAM: The Open Source CFD Toolbox           |
|  \\    /   O peration     | Version:  2312                                  |
|   \\  /    A nd           | Website:  www.openfoam.com                      |
|    \\/     M anipulation  |                                                 |
\*---------------------------------------------------------------------------*/
FoamFile
{
    version     2.0;
    format      ascii;
    arch        "LSB;label=32;scalar=64";
    class       volScalarField;
    location    "50";
    object      turbulenceProperties:L;
}
// * * * * * * * * * * * * * * * * * * * * * * * * * * * * * * * * * * * * * //

dimensions      [0 1 0 0 0 0 0];

internalField   nonuniform List<scalar> 
11040
(
0.000790585
0.000551684
0.000447222
0.000454274
0.000530216
0.000655079
0.000795347
0.000903319
0.000963981
0.000992472
0.00100651
0.00101594
0.00102418
0.00103189
0.00103913
0.00104597
0.00105263
0.00105945
0.00106676
0.00107495
0.00108431
0.00109511
0.00110693
0.00111904
0.00113141
0.00114435
0.00115788
0.00117184
0.00118607
0.00120034
0.00121451
0.00122868
0.0012431
0.00125824
0.00127459
0.00129273
0.00131321
0.00133641
0.00136443
0.00139504
0.00143705
0.00128042
0.00122091
0.00114619
0.00116162
0.00119626
0.00117873
0.00117034
0.00134307
0.00163568
0.00194487
0.00223204
0.00248904
0.00271466
0.00290448
0.00305238
0.00315548
0.00321803
0.00325028
0.003265
0.00327338
0.00328063
0.00329536
0.00332723
0.00337249
0.00341979
0.00346182
0.00349707
0.00353122
0.00356913
0.00361519
0.00367069
0.00372886
0.00378386
0.00382575
0.00384804
0.00384798
0.00382671
0.00379219
0.00374955
0.00371152
0.00348707
0.00149613
0.0016379
0.00205373
0.00231454
0.0021628
0.00210532
0.00215346
0.00226493
0.0024149
0.00259389
0.00286815
0.00340236
0.00428504
0.00411284
0.00362808
0.00344262
0.00341272
0.00345626
0.00353669
0.003635
0.00373757
0.00382485
0.00389356
0.00396007
0.00402705
0.00409344
0.00416152
0.0042332
0.00431189
0.00439932
0.00449432
0.0045943
0.00469284
0.00478631
0.00486979
0.00494048
0.00499896
0.00505264
0.00508625
0.0051488
0.0049006
0.00184771
0.00189222
0.00198974
0.0020767
0.00217806
0.00231526
0.00248468
0.00268137
0.00291195
0.0031896
0.00352751
0.00395978
0.00455597
0.00542112
0.00666857
0.00789975
0.00722777
0.00569318
0.00466609
0.00415414
0.00397235
0.00396731
0.00404447
0.00415641
0.00427268
0.0043836
0.00449471
0.0046134
0.00474227
0.00487859
0.00501575
0.00514372
0.00525368
0.00534172
0.00540923
0.00546385
0.00551438
0.00557755
0.00563225
0.00574034
0.00561183
0.0022594
0.00224973
0.00233677
0.00252813
0.00286094
0.00329403
0.00367882
0.0038884
0.00396359
0.00400341
0.00406198
0.00416387
0.0043154
0.00449828
0.00469876
0.00491845
0.00519579
0.00557792
0.00607227
0.0066334
0.00720734
0.00781837
0.00857529
0.00977722
0.0103238
0.0078607
0.00615703
0.00538447
0.00508058
0.00500639
0.00503719
0.00510502
0.00517899
0.00524592
0.00530365
0.00536193
0.00543003
0.00553116
0.00562835
0.00579226
0.00577753
0.00276479
0.00270126
0.0027179
0.0027889
0.00292594
0.0031103
0.00332427
0.00355532
0.0037952
0.0040418
0.00429946
0.0045763
0.0048793
0.00521742
0.00562711
0.00614465
0.00678773
0.00755228
0.00842305
0.00935786
0.0103115
0.0110301
0.0111663
0.0110502
0.0112429
0.0120061
0.012925
0.0131152
0.0126422
0.0118637
0.0106798
0.00934464
0.00823355
0.00738876
0.00663158
0.00584639
0.00522625
0.00493814
0.00488756
0.00506133
0.0052153
0.00336026
0.00325258
0.00322574
0.00323791
0.0033399
0.00353731
0.00381992
0.00416807
0.00454994
0.00492463
0.00525491
0.00552472
0.00574353
0.00592306
0.00606188
0.00615646
0.00622782
0.00633603
0.00654946
0.00688666
0.00727912
0.00762169
0.00783571
0.00793199
0.00804282
0.0083547
0.00894225
0.00967162
0.0102354
0.0104656
0.0103652
0.0100047
0.0096695
0.00967255
0.010176
0.011128
0.0119483
0.0117398
0.00984587
0.0083676
0.00470293
0.00406905
0.00392003
0.00386137
0.00380242
0.00381571
0.00390885
0.00406551
0.00426809
0.00450135
0.00475417
0.00502051
0.00530088
0.00559885
0.00591439
0.00624134
0.00657413
0.00692094
0.0072987
0.00773888
0.00827713
0.00891273
0.00959355
0.0102132
0.0105918
0.0106286
0.010612
0.0108511
0.0113018
0.0116275
0.0117014
0.0117122
0.0115597
0.0109889
0.010268
0.00980334
0.00967017
0.00967625
0.00966868
0.00964482
0.0106072
0.0116868
0.00491177
0.00471841
0.0046449
0.00452771
0.0044682
0.00449204
0.00459248
0.00476021
0.00498534
0.00525685
0.0055619
0.00588913
0.00622864
0.00657062
0.00690153
0.00719198
0.00740631
0.00754087
0.00764868
0.00780843
0.00807731
0.00842927
0.00876355
0.00896947
0.0090018
0.00897416
0.00906019
0.00934777
0.00979003
0.0102357
0.0105539
0.0106835
0.0105352
0.010109
0.00963422
0.00930905
0.00912804
0.00896976
0.00869446
0.00850242
0.00875097
0.00592007
0.00567326
0.00559752
0.00543029
0.00529721
0.00523795
0.00524895
0.00532282
0.00545087
0.00562272
0.00582807
0.00605965
0.00631385
0.00658926
0.00688548
0.00719728
0.0075128
0.00782394
0.00813926
0.00849125
0.00891756
0.00941778
0.00994508
0.01041
0.0107124
0.0108302
0.0108732
0.0109898
0.0112178
0.0114636
0.0116417
0.0117757
0.0118509
0.0116827
0.0112015
0.0106277
0.0101401
0.00974421
0.00932115
0.00893728
0.00869321
0.00713008
0.00681658
0.00674856
0.00653997
0.00634067
0.00620487
0.00613414
0.00612761
0.0061831
0.00629524
0.00645605
0.00665845
0.00689647
0.00716433
0.00745701
0.00776647
0.00807572
0.0083594
0.0085995
0.00881031
0.00904225
0.00933093
0.00967039
0.0100062
0.0102435
0.0103222
0.0102813
0.0102322
0.0102639
0.0103932
0.0105813
0.0107866
0.0109794
0.0110989
0.0110642
0.0108775
0.0106405
0.0104414
0.0102447
0.0100592
0.009891
0.00858764
0.00819083
0.00813778
0.00789256
0.00763119
0.00742087
0.00726455
0.00716533
0.00712602
0.0071444
0.00721403
0.0073283
0.0074811
0.00766687
0.00788145
0.00812104
0.0083799
0.00864875
0.00891989
0.00919769
0.00949892
0.0098384
0.0102275
0.0106497
0.0110433
0.0113362
0.0114938
0.0115525
0.0115931
0.0116742
0.0118042
0.0119706
0.0121744
0.0124068
0.0126013
0.0126472
0.0125052
0.012239
0.0119142
0.0115972
0.0113125
0.0103477
0.00984863
0.00981551
0.00953518
0.00921394
0.00893301
0.0086941
0.0085034
0.00836954
0.00829568
0.00827927
0.00831605
0.0084013
0.00852996
0.00869724
0.00889875
0.0091292
0.0093805
0.00964124
0.00990127
0.0101606
0.0104223
0.0106982
0.0109938
0.0112824
0.0115203
0.0116731
0.0117399
0.0117585
0.0117788
0.0118346
0.0119364
0.0120862
0.0122833
0.0125094
0.012712
0.0128368
0.0128621
0.0128157
0.0127543
0.0126453
0.0124784
0.0118564
0.0118457
0.0115285
0.0111458
0.0107948
0.0104737
0.0101893
0.00995446
0.0097769
0.00965753
0.00959428
0.00958387
0.00962209
0.00970465
0.00982735
0.00998615
0.0101762
0.0103908
0.0106233
0.0108689
0.011122
0.0113883
0.011677
0.0119775
0.0122659
0.0125159
0.0127108
0.0128531
0.0129643
0.0130708
0.0131924
0.0133424
0.0135318
0.0137652
0.0140205
0.0142543
0.014403
0.0144499
0.0144329
0.0143116
0.0150659
0.0142995
0.0143103
0.0139511
0.013502
0.0130781
0.0126735
0.012294
0.0119561
0.0116715
0.0114449
0.0112772
0.0111676
0.0111136
0.0111121
0.0111592
0.0112505
0.0113814
0.0115461
0.0117379
0.0119508
0.0121718
0.0123961
0.012631
0.0128733
0.0131129
0.0133342
0.0135213
0.0136646
0.0137666
0.0138413
0.0139095
0.0139937
0.0141155
0.0142916
0.0145241
0.0148015
0.0150922
0.0153619
0.0156077
0.0157577
0.0182152
0.0172838
0.0173103
0.0169014
0.0163791
0.0158763
0.015383
0.014904
0.0144579
0.0140596
0.0137165
0.0134321
0.0132077
0.0130427
0.0129354
0.0128827
0.0128812
0.0129269
0.0130157
0.0131428
0.0133028
0.0134824
0.0136762
0.0138888
0.0141186
0.0143617
0.0146101
0.0148527
0.0150791
0.0152839
0.0154703
0.0156493
0.0158375
0.0160553
0.0163214
0.0166484
0.0170348
0.0174599
0.0178867
0.0182677
0.0185565
0.0220082
0.020902
0.0209275
0.0204591
0.0198586
0.0192711
0.0186833
0.0180999
0.017542
0.0170264
0.0165631
0.0161574
0.0158129
0.0155316
0.0153135
0.0151575
0.0150614
0.0150222
0.015037
0.0151021
0.0152149
0.0153627
0.0155354
0.0157325
0.0159492
0.0161809
0.0164215
0.0166632
0.0168982
0.0171216
0.0173333
0.0175395
0.0177512
0.0179858
0.0182617
0.0185928
0.018984
0.0194271
0.0199088
0.0203766
0.0207808
0.0263675
0.0250968
0.0251006
0.0245578
0.0238748
0.0231973
0.0225088
0.0218166
0.0211442
0.0205099
0.0199248
0.0193958
0.0189279
0.0185246
0.0181876
0.0179172
0.0177122
0.0175707
0.0174904
0.0174681
0.017502
0.0175812
0.0176952
0.0178413
0.0180131
0.0182064
0.0184177
0.0186433
0.0188798
0.0191251
0.0193794
0.0196471
0.0199343
0.0202502
0.0206059
0.0210103
0.0214669
0.02196
0.0224822
0.0230039
0.0234395
0.031148
0.0297208
0.0296969
0.0290715
0.0283
0.0275272
0.0267328
0.0259281
0.025139
0.0243855
0.0236796
0.0230293
0.0224406
0.0219185
0.0214659
0.0210844
0.0207738
0.0205335
0.0203617
0.0202558
0.0202156
0.0202316
0.0202939
0.0203986
0.0205385
0.0207088
0.0209061
0.0211273
0.0213687
0.0216269
0.0218988
0.0221827
0.022479
0.0227895
0.0231174
0.0234661
0.023845
0.0242505
0.024675
0.0251393
0.0255259
0.0362872
0.0347245
0.0346616
0.0339511
0.0330908
0.0322208
0.0313191
0.0304011
0.0294962
0.0286257
0.0278029
0.0270363
0.0263331
0.0256986
0.0251369
0.0246502
0.0242395
0.0239051
0.0236464
0.0234617
0.0233519
0.0233092
0.0233259
0.0233987
0.0235197
0.0236833
0.0238854
0.0241222
0.0243897
0.0246843
0.0250031
0.0253446
0.0257087
0.0260986
0.0265167
0.0269652
0.02745
0.0279761
0.0285287
0.0291307
0.0296903
0.0418207
0.040141
0.0400325
0.039238
0.0382901
0.0373211
0.0363104
0.0352768
0.0342548
0.0332659
0.0323264
0.0314448
0.0306298
0.0298867
0.0292209
0.0286348
0.028131
0.0277098
0.0273722
0.0271174
0.0269481
0.0268574
0.0268377
0.0268857
0.0269921
0.0271499
0.0273535
0.0275978
0.027878
0.0281907
0.0285325
0.0289018
0.0292967
0.0297191
0.0301691
0.0306474
0.0311544
0.0316954
0.0322619
0.0328797
0.0334427
0.0477759
0.0459949
0.0458309
0.0449545
0.0439182
0.0428492
0.0417269
0.040576
0.0394341
0.0383255
0.0372677
0.0362708
0.0353442
0.0344941
0.033726
0.0330429
0.0324476
0.0319411
0.0315246
0.0311976
0.0309633
0.0308145
0.0307436
0.0307484
0.0308194
0.0309493
0.0311319
0.0313621
0.0316352
0.0319476
0.0322957
0.0326778
0.033091
0.0335351
0.0340097
0.0345141
0.0350488
0.0356146
0.0361988
0.0368724
0.0374034
0.0541862
0.052321
0.0520925
0.0511343
0.0500085
0.0488387
0.0476031
0.0463346
0.0450708
0.0438414
0.0426634
0.0415509
0.0405122
0.0395564
0.0386878
0.0379115
0.0372292
0.0366433
0.0361546
0.035764
0.0354751
0.0352803
0.0351717
0.0351491
0.0352029
0.0353251
0.0355091
0.0357485
0.0360383
0.0363732
0.0367499
0.037164
0.0376121
0.0380925
0.0386045
0.0391425
0.0397062
0.0403012
0.0409025
0.0416192
0.0421237
0.0610922
0.0591541
0.0588505
0.0578086
0.0565909
0.0553172
0.0539672
0.0525797
0.0511938
0.0498426
0.0485438
0.0473147
0.0461639
0.0451026
0.0441348
0.043267
0.0425006
0.0418391
0.0412825
0.0408326
0.0404935
0.0402555
0.04011
0.040058
0.0400901
0.0401973
0.0403729
0.0406099
0.0409034
0.0412486
0.0416418
0.0420774
0.0425528
0.0430669
0.043617
0.0441972
0.0448048
0.0454462
0.0460876
0.0468843
0.0473948
0.0685365
0.0665391
0.0661494
0.0650164
0.063702
0.0623181
0.0608518
0.0593431
0.0578356
0.0563618
0.0549433
0.0535971
0.052335
0.051168
0.0501025
0.0491445
0.0482968
0.0475625
0.0469426
0.0464384
0.0460555
0.0457809
0.045605
0.0455307
0.0455481
0.0456482
0.0458234
0.0460669
0.0463724
0.0467346
0.0471474
0.0476062
0.0481069
0.0486484
0.0492249
0.0498303
0.0504598
0.0511277
0.0517822
0.0526452
0.0531133
0.0765681
0.0745188
0.0740347
0.072805
0.0713838
0.0698796
0.0682906
0.066656
0.0650262
0.0634292
0.0618925
0.0604296
0.059058
0.0577859
0.0566246
0.0555776
0.0546514
0.053847
0.0531678
0.0526138
0.0521926
0.0518873
0.0516859
0.0515939
0.0516008
0.0516973
0.0518747
0.0521262
0.0524436
0.0528211
0.0532517
0.0537328
0.0542587
0.0548281
0.0554361
0.0560782
0.0567497
0.0574699
0.0581652
0.0591339
0.0596437
0.0852287
0.0831545
0.0825632
0.0812282
0.0796889
0.0780514
0.0763267
0.0745587
0.0728005
0.0710794
0.0694238
0.0678465
0.0663664
0.0649919
0.0637363
0.0626035
0.0616013
0.0607305
0.0599956
0.0593966
0.0589421
0.0586107
0.0583879
0.0582813
0.0582808
0.0583759
0.0585572
0.0588164
0.059145
0.0595353
0.0599837
0.0604855
0.0610352
0.06163
0.0622692
0.0629446
0.0636511
0.0644113
0.0651302
0.0661654
0.0667087
0.0945792
0.0924927
0.0917958
0.0903576
0.0886852
0.086899
0.0850186
0.0831032
0.0812044
0.0793546
0.0775759
0.0758851
0.0742963
0.0728224
0.0714741
0.0702591
0.0691841
0.0682524
0.0674665
0.0668276
0.0663458
0.0659943
0.0657557
0.065641
0.0656401
0.0657391
0.0659302
0.0662011
0.0665446
0.0669518
0.0674202
0.0679408
0.0685101
0.0691249
0.0697868
0.0704861
0.0712136
0.071999
0.0727251
0.0737956
0.074373
0.104663
0.102605
0.101802
0.100264
0.098454
0.0965002
0.0944419
0.0923578
0.0902994
0.088308
0.0863983
0.084591
0.0828926
0.0813206
0.0798806
0.0785857
0.0774395
0.07645
0.0756177
0.0749454
0.0744423
0.0740771
0.0738282
0.0737104
0.0737132
0.0738218
0.0740261
0.0743131
0.0746746
0.0751006
0.0755851
0.0761207
0.076703
0.0773335
0.0780108
0.0787275
0.0794677
0.0802747
0.0810053
0.0820984
0.0827208
0.115539
0.113533
0.112655
0.111025
0.109071
0.106938
0.104682
0.102402
0.100161
0.0980068
0.0959536
0.0940199
0.0922097
0.0905363
0.0890041
0.0876268
0.0864093
0.0853612
0.0844846
0.0837815
0.0832608
0.0828851
0.0826263
0.0825036
0.0825069
0.0826248
0.0828402
0.0831432
0.0835209
0.083967
0.0844695
0.0850267
0.0856277
0.0862792
0.086975
0.0877131
0.0884694
0.089301
0.0900434
0.0911449
0.0918574
0.12725
0.125343
0.124398
0.122692
0.120613
0.118293
0.115828
0.113326
0.110878
0.108532
0.106317
0.104241
0.102312
0.100531
0.0989044
0.0974402
0.0961481
0.0950369
0.0941102
0.0933724
0.0928354
0.0924519
0.0921837
0.0920588
0.0920609
0.0921815
0.092404
0.0927236
0.093121
0.0935925
0.0941205
0.0947031
0.0953267
0.0959981
0.0967117
0.0974654
0.0982346
0.0990844
0.0998376
0.100918
0.101793
0.139835
0.138068
0.137084
0.135308
0.133116
0.130624
0.127944
0.125209
0.122532
0.119969
0.117567
0.115331
0.11327
0.111375
0.109651
0.108096
0.106721
0.105535
0.104549
0.10377
0.103215
0.102827
0.102556
0.102434
0.102445
0.102577
0.102814
0.10315
0.103571
0.104066
0.104622
0.105228
0.105877
0.106564
0.107293
0.108053
0.10883
0.109685
0.110446
0.111481
0.112559
0.153398
0.151783
0.150721
0.148892
0.146593
0.143935
0.14106
0.1381
0.135185
0.132393
0.129779
0.127363
0.125155
0.123139
0.121313
0.119667
0.118203
0.11693
0.115869
0.115026
0.114434
0.114032
0.113761
0.113648
0.113683
0.113836
0.114099
0.114456
0.114904
0.115424
0.116014
0.116654
0.11734
0.118057
0.118812
0.11959
0.120378
0.12124
0.122005
0.122982
0.124292
0.168018
0.166539
0.165368
0.163435
0.161007
0.158218
0.155167
0.152011
0.148871
0.145853
0.143018
0.140408
0.138032
0.135888
0.133958
0.132223
0.130677
0.129317
0.128159
0.127227
0.126569
0.126121
0.125828
0.125719
0.125778
0.125965
0.126271
0.126666
0.127149
0.127698
0.128321
0.128999
0.129726
0.130488
0.131287
0.132111
0.132932
0.13382
0.134613
0.13553
0.13709
0.18388
0.182466
0.181085
0.178972
0.176387
0.17345
0.170245
0.166916
0.163579
0.160353
0.157305
0.154497
0.151946
0.149664
0.147629
0.145817
0.144203
0.142773
0.141525
0.140487
0.139722
0.139182
0.138808
0.138657
0.138716
0.138948
0.139314
0.139774
0.140307
0.140904
0.141557
0.142269
0.143027
0.143835
0.144684
0.145573
0.146458
0.147414
0.148299
0.149148
0.151043
0.20117
0.199763
0.198067
0.195655
0.192815
0.189665
0.186281
0.18277
0.179259
0.175842
0.172604
0.169608
0.166894
0.164473
0.162342
0.160468
0.158813
0.157345
0.156044
0.154909
0.154015
0.153323
0.152789
0.152506
0.152492
0.152714
0.153129
0.153684
0.15433
0.155032
0.155766
0.156529
0.157314
0.158137
0.159004
0.159922
0.160848
0.161852
0.162852
0.163581
0.165896
0.220181
0.218695
0.216585
0.213756
0.210499
0.207013
0.203342
0.199605
0.195886
0.192279
0.188859
0.185691
0.182824
0.180287
0.17807
0.176155
0.1745
0.173045
0.171743
0.17058
0.169597
0.168749
0.168001
0.167498
0.167282
0.167382
0.16776
0.168385
0.169163
0.170035
0.170924
0.17181
0.172668
0.173518
0.174382
0.17529
0.176225
0.177248
0.178384
0.179073
0.181733
0.241184
0.239629
0.237067
0.233646
0.229838
0.225809
0.221715
0.217618
0.213605
0.209735
0.206092
0.20273
0.199702
0.19704
0.194751
0.192819
0.191193
0.189819
0.188614
0.187525
0.186561
0.185653
0.18474
0.183991
0.18348
0.183294
0.183449
0.18396
0.184754
0.185757
0.18685
0.187955
0.189006
0.18999
0.190938
0.191894
0.192887
0.193961
0.195286
0.196151
0.199064
0.264486
0.2629
0.25988
0.255879
0.251314
0.246602
0.241895
0.237258
0.232784
0.228516
0.224527
0.220865
0.217589
0.214732
0.212322
0.210344
0.20876
0.207505
0.206482
0.205604
0.204831
0.204032
0.203128
0.20224
0.201472
0.200922
0.200692
0.200846
0.201412
0.202348
0.203561
0.204917
0.206291
0.207595
0.208821
0.210002
0.211196
0.212433
0.214007
0.215192
0.218639
0.290248
0.288799
0.285453
0.280818
0.275537
0.269998
0.26449
0.259138
0.254004
0.249166
0.244659
0.240526
0.236826
0.233603
0.2309
0.228732
0.227084
0.225898
0.225072
0.224506
0.224078
0.22361
0.222969
0.222199
0.221357
0.220532
0.219852
0.219444
0.219437
0.2199
0.22084
0.222172
0.223751
0.22542
0.227058
0.22862
0.23013
0.231596
0.233444
0.234813
0.238735
0.318774
0.317523
0.313904
0.308831
0.302818
0.296486
0.290152
0.283953
0.278029
0.272443
0.267229
0.262431
0.258093
0.254275
0.251031
0.248401
0.24641
0.245044
0.244243
0.243899
0.243881
0.243949
0.243923
0.24372
0.243311
0.242704
0.241993
0.241298
0.240797
0.240644
0.240994
0.241902
0.243351
0.245204
0.247279
0.249387
0.251423
0.253262
0.255543
0.256578
0.26123
0.349616
0.348646
0.344779
0.339307
0.332832
0.325968
0.31903
0.312242
0.305678
0.299386
0.293384
0.287743
0.282515
0.277809
0.273697
0.270268
0.267571
0.265614
0.264398
0.263821
0.263783
0.26404
0.264382
0.264618
0.264636
0.264345
0.263764
0.262953
0.262041
0.261186
0.260592
0.260452
0.260919
0.262051
0.263789
0.265963
0.26835
0.27061
0.273313
0.27407
0.27849
0.383209
0.38208
0.377662
0.371718
0.364765
0.357489
0.35029
0.343375
0.336743
0.330365
0.324155
0.318073
0.312122
0.306401
0.301048
0.296263
0.292215
0.289057
0.286883
0.285705
0.285489
0.286076
0.287181
0.28855
0.289938
0.291138
0.292026
0.292558
0.29274
0.292637
0.292338
0.292015
0.291856
0.292102
0.292926
0.294404
0.296481
0.298763
0.301922
0.301982
0.310155
0.419381
0.417553
0.412261
0.405814
0.398551
0.390887
0.383283
0.376004
0.369217
0.362967
0.357204
0.351789
0.34653
0.341261
0.335868
0.330348
0.324812
0.319454
0.314517
0.310209
0.306741
0.304194
0.302459
0.301497
0.301162
0.301249
0.301548
0.301892
0.302167
0.302323
0.302351
0.302295
0.302221
0.302269
0.302613
0.303443
0.30489
0.306916
0.310004
0.311709
0.319006
0.456901
0.453115
0.44663
0.44036
0.434111
0.427705
0.420959
0.413801
0.406262
0.398618
0.391193
0.38432
0.378223
0.373019
0.368715
0.365217
0.362408
0.360156
0.358405
0.357105
0.356405
0.356314
0.3567
0.357538
0.358759
0.360256
0.361867
0.363439
0.364847
0.366015
0.366899
0.367473
0.367707
0.367589
0.367167
0.366561
0.36606
0.365643
0.366948
0.363712
0.383298
0.496097
0.48839
0.478615
0.471022
0.465737
0.462258
0.459984
0.458195
0.456161
0.453197
0.448683
0.442152
0.433435
0.422711
0.410526
0.397573
0.384608
0.372228
0.360865
0.350821
0.342109
0.334795
0.328834
0.324255
0.320934
0.318724
0.31745
0.316945
0.317042
0.317606
0.318547
0.319818
0.321413
0.323355
0.325676
0.328417
0.331567
0.335174
0.339348
0.343977
0.347449
0.534691
0.521645
0.507225
0.495645
0.487297
0.48205
0.479907
0.480701
0.484133
0.489635
0.496421
0.503356
0.509242
0.512988
0.514037
0.512513
0.509099
0.504703
0.500097
0.495683
0.491973
0.488933
0.486714
0.484714
0.482606
0.480306
0.477808
0.47518
0.472572
0.470134
0.468013
0.46623
0.46475
0.463341
0.461684
0.459309
0.45603
0.451224
0.447521
0.436692
0.44601
0.569362
0.556566
0.545586
0.532702
0.511969
0.482537
0.449416
0.417993
0.390975
0.368965
0.35155
0.33808
0.327864
0.320339
0.315
0.311459
0.309348
0.308386
0.308298
0.308897
0.30995
0.3107
0.311564
0.312347
0.312973
0.31342
0.313696
0.313835
0.313901
0.313979
0.314167
0.314577
0.315316
0.316506
0.318195
0.320414
0.323151
0.326549
0.330109
0.333162
0.340232
0.00621458
0.00727549
0.0080805
0.00869542
0.00913279
0.00959088
0.0100631
0.0105106
0.0110023
0.011509
0.0119168
0.0123207
0.0126794
0.0129683
0.0134506
0.0139144
0.0145757
0.0152299
0.0160514
0.0171583
0.0185996
0.0204999
0.0228432
0.0254766
0.0282672
0.0313382
0.0343024
0.0376502
0.0415281
0.0464602
0.0525038
0.0616621
0.0770152
0.110272
0.161477
0.0894972
0.0676956
0.0566323
0.0497132
0.045044
0.0416402
0.0390634
0.0370853
0.0354417
0.0342092
0.0331518
0.0323112
0.031633
0.0310697
0.0306022
0.0302112
0.0298977
0.0296438
0.0294514
0.0293078
0.0291926
0.0291329
0.0290974
0.02909
0.0290965
0.0291059
0.0291072
0.0290844
0.0290213
0.0289045
0.0287149
0.028439
0.0280576
0.027559
0.0269398
0.0262168
0.0255042
0.024837
0.026059
0.00437347
0.00554059
0.00638688
0.00695986
0.00739965
0.00781041
0.00823639
0.00866098
0.00910537
0.0095647
0.00996765
0.0103593
0.0107314
0.0110209
0.0113728
0.011705
0.0121348
0.0126001
0.0131544
0.0139393
0.0148884
0.0161316
0.0176638
0.0193888
0.0212049
0.0231178
0.0248976
0.0266319
0.028408
0.0303029
0.032246
0.0344432
0.0369752
0.0398846
0.0438324
0.0492424
0.0571545
0.0708964
0.103533
0.203504
0.0909006
0.0681348
0.0566489
0.0499984
0.045574
0.0423883
0.0401698
0.0384149
0.0370209
0.0359427
0.0351052
0.0344501
0.0339409
0.0335596
0.0332714
0.0330711
0.0329546
0.0328897
0.032879
0.0329016
0.0329501
0.0330089
0.0330669
0.0331141
0.033141
0.0331393
0.033103
0.0330239
0.0328952
0.0327088
0.0324518
0.0321396
0.0317211
0.0307646
0.00520534
0.00591392
0.00641653
0.00675509
0.00704744
0.00732517
0.00762855
0.0079592
0.00831521
0.00869976
0.00905116
0.00938641
0.00972289
0.0100053
0.0102879
0.0105628
0.0108549
0.0112004
0.0115699
0.01212
0.0127866
0.0136619
0.014765
0.0160497
0.0174534
0.0189688
0.0204387
0.0218288
0.0231825
0.0245215
0.0258313
0.0271612
0.0285704
0.0299953
0.0316323
0.0335117
0.0356522
0.0382192
0.041389
0.0456035
0.0510723
0.0584789
0.071959
0.098786
0.243086
0.114109
0.0813178
0.0668377
0.0584488
0.0531801
0.0495913
0.0469622
0.0450093
0.0435315
0.0423846
0.0415663
0.0409479
0.0404922
0.0401686
0.0399399
0.0397878
0.0396777
0.0395919
0.039515
0.0394288
0.0393254
0.0391928
0.0390288
0.0388334
0.0386106
0.0383561
0.0380849
0.0378639
0.0369443
0.00571692
0.00623592
0.00658466
0.00677181
0.00693359
0.00709034
0.00727686
0.0075092
0.0077854
0.0081159
0.00842838
0.00872205
0.00902339
0.00927955
0.0095239
0.00976544
0.00998157
0.0102485
0.0104818
0.0108656
0.0113274
0.0119596
0.0128019
0.0138222
0.0149733
0.0162656
0.0176052
0.0189035
0.0201642
0.0213714
0.0225226
0.0236262
0.0247424
0.0258161
0.0269329
0.0281234
0.0293555
0.0306869
0.0321314
0.0337843
0.0355972
0.0375099
0.039905
0.042592
0.0459122
0.050011
0.0548405
0.0614052
0.0710102
0.0856653
0.111958
0.189435
0.21527
0.125069
0.0986708
0.0861624
0.0784013
0.0732692
0.0696561
0.0669979
0.0650122
0.0634186
0.0620872
0.0609186
0.0598007
0.0586924
0.0575216
0.0562819
0.0549741
0.0536168
0.052235
0.0507452
0.0498287
0.0468314
0.0057658
0.00620388
0.00651727
0.00662026
0.00667461
0.00670916
0.00675449
0.0068486
0.00701634
0.00728856
0.00757936
0.00784751
0.00811142
0.00829863
0.00846965
0.00864424
0.0087713
0.00894272
0.00902525
0.00923438
0.00949435
0.00991202
0.0106111
0.0115799
0.0127452
0.0140885
0.0154904
0.0168192
0.0180868
0.0192714
0.0203887
0.0214232
0.0224437
0.0234052
0.0243438
0.0253154
0.0262722
0.0272578
0.0282611
0.0293487
0.0304787
0.0315766
0.0327934
0.0340662
0.0354145
0.0368919
0.0383749
0.0399645
0.0417467
0.0436528
0.0456349
0.0477389
0.0499378
0.0522576
0.0547258
0.0571298
0.0595856
0.0619882
0.064311
0.0665284
0.0685656
0.0704753
0.072255
0.0739215
0.0756106
0.0773874
0.0794727
0.0820622
0.085445
0.0901762
0.096753
0.109652
0.12046
0.301353
0.00511065
0.00555736
0.0059563
0.00606451
0.0060743
0.00604688
0.00597855
0.00596711
0.006179
0.00679414
0.00794471
0.00958432
0.0115479
0.013082
0.0147165
0.0168879
0.0199137
0.0231716
0.0252908
0.0249474
0.0249353
0.0238225
0.0222782
0.018698
0.013716
0.0105887
0.0107856
0.0122534
0.0140938
0.0159656
0.0177019
0.0191846
0.0204774
0.0215544
0.0224823
0.0233881
0.0242212
0.0250537
0.0258701
0.0267564
0.0276626
0.0285055
0.0294151
0.0303458
0.0312703
0.0322556
0.0331884
0.0340968
0.0350405
0.0360011
0.0369277
0.0378415
0.0387252
0.0395754
0.0404039
0.0411595
0.0418611
0.0425042
0.0430768
0.0435887
0.0440272
0.0444057
0.0447266
0.0449892
0.0452116
0.0453986
0.0455645
0.045721
0.0458728
0.0460445
0.0462083
0.0465377
0.0467005
0.0470716
0.00492047
0.00698301
0.0109362
0.0165882
0.0241615
0.0330232
0.0353161
0.0320077
0.0299872
0.0301187
0.0329762
0.0408905
0.0663136
0.0426911
0.031287
0.0265912
0.0259269
0.0276424
0.0347944
0.0680174
0.0386528
0.0274073
0.0245064
0.0244633
0.0275204
0.0351948
0.0538379
0.0452897
0.0387659
0.0323251
0.0229613
0.0161861
0.0143198
0.0148792
0.0161555
0.0176816
0.0191503
0.0205616
0.0218446
0.0231172
0.0242938
0.0252702
0.0262527
0.0271913
0.0280585
0.0289593
0.0297668
0.0305129
0.0312573
0.0320129
0.0327076
0.0333755
0.0339989
0.0345778
0.0351297
0.0356225
0.0360591
0.0364549
0.0367864
0.0370729
0.0372948
0.037462
0.0375673
0.037603
0.0375724
0.0374713
0.0372967
0.0370519
0.0367336
0.0363456
0.035882
0.0353642
0.0348476
0.0335917
0.0125645
0.015322
0.0185506
0.0204524
0.0226158
0.0270844
0.0278467
0.0199001
0.0162846
0.015203
0.0157208
0.0179126
0.023826
0.0320032
0.0242812
0.0200499
0.0192805
0.0201216
0.0229911
0.0292174
0.0307945
0.0252841
0.0223239
0.0212668
0.02179
0.0236465
0.0279773
0.0340304
0.0386125
0.0370012
0.0345854
0.0337268
0.0341674
0.0350076
0.0365177
0.0381462
0.037879
0.0333886
0.0257352
0.018967
0.0161957
0.0157708
0.0165776
0.0178054
0.0191064
0.0204694
0.0216703
0.0227392
0.0237374
0.0246916
0.0254993
0.0262119
0.0268158
0.0273177
0.0277419
0.0280492
0.0282478
0.0283616
0.028362
0.0282784
0.0280922
0.0278215
0.0274688
0.0270374
0.0265493
0.0260259
0.0254987
0.0250222
0.0246655
0.0245314
0.0247542
0.0255133
0.0268665
0.029725
0.00895668
0.0103137
0.0127648
0.0153824
0.0177581
0.0207355
0.0235471
0.0197759
0.0163082
0.014958
0.0149494
0.0160878
0.018888
0.0236755
0.0264671
0.0239226
0.0224117
0.0225731
0.0246679
0.0297672
0.0345929
0.0310466
0.0264995
0.0241762
0.0236763
0.0245283
0.0274032
0.0321348
0.0395778
0.0463079
0.0448659
0.0406776
0.0380472
0.0360737
0.0350427
0.0344092
0.0338887
0.0338247
0.0339112
0.0345646
0.0356681
0.0366186
0.0383477
0.0408783
0.0433771
0.0463204
0.0485936
0.0496765
0.0492859
0.0474803
0.0453019
0.0428624
0.0408725
0.0392715
0.0383352
0.0382044
0.0385655
0.0394825
0.040794
0.0423503
0.0440388
0.0456322
0.0470896
0.0483089
0.0493185
0.0501957
0.0510058
0.0518464
0.0527491
0.0537216
0.0547446
0.0558717
0.0569785
0.0577353
0.00876363
0.00980814
0.0118336
0.0145725
0.0174362
0.0204329
0.0237588
0.0231762
0.0194811
0.0173206
0.0166201
0.0170724
0.0188004
0.0220269
0.0264111
0.0286436
0.0277117
0.0271819
0.0285492
0.0328998
0.0393789
0.039534
0.0328291
0.0286304
0.0269461
0.0269666
0.0289442
0.0326619
0.0391258
0.0481867
0.0515247
0.0463305
0.0422191
0.0397012
0.0389118
0.0388574
0.0390777
0.0396792
0.0400368
0.0405974
0.0408481
0.0401303
0.0398031
0.0395387
0.0390201
0.039189
0.0391724
0.0391886
0.0394809
0.0400752
0.0406452
0.041167
0.0417415
0.0422345
0.0428789
0.0434868
0.0440948
0.0448702
0.0456931
0.0466823
0.0477835
0.0490137
0.0504076
0.051868
0.0534344
0.0550787
0.0567605
0.0584853
0.0601951
0.0618521
0.0634139
0.0650145
0.06642
0.0671574
0.0099461
0.010814
0.0124677
0.0148823
0.0177362
0.0207161
0.023584
0.0244961
0.0221433
0.0197333
0.0185025
0.0183951
0.0193979
0.0216158
0.0252599
0.0298595
0.0325445
0.0327674
0.0335093
0.0368335
0.0430251
0.0473174
0.0402723
0.0340423
0.0310093
0.0302131
0.0314689
0.0344332
0.0397725
0.0475564
0.0531263
0.0505076
0.0465905
0.0439928
0.0433261
0.0435909
0.0442961
0.0453916
0.046108
0.0468622
0.047179
0.0464408
0.046156
0.0460734
0.0457009
0.0461971
0.0464798
0.0467893
0.0474197
0.0484418
0.0494351
0.0503134
0.051235
0.0519897
0.0528851
0.0536452
0.0543549
0.0552406
0.0561517
0.0572538
0.058466
0.0598212
0.061362
0.0629491
0.0646461
0.0664131
0.0681991
0.0700194
0.0717946
0.0734772
0.0750213
0.0766375
0.0779568
0.0784277
0.0111823
0.0117716
0.0129606
0.0147953
0.0171584
0.0197533
0.0220923
0.0233712
0.0229029
0.0214781
0.020337
0.0199775
0.0205394
0.0221257
0.0249281
0.029072
0.0336128
0.0365402
0.0381619
0.0411122
0.0468488
0.0533599
0.0482627
0.0403129
0.0358468
0.0341649
0.0346208
0.0367421
0.0407795
0.0467264
0.052854
0.0550692
0.0540636
0.0524545
0.0521423
0.0525287
0.0530417
0.0535674
0.0534601
0.0533503
0.0530905
0.0520486
0.0516453
0.0515399
0.0512263
0.0518059
0.0521684
0.0525697
0.0533385
0.0545961
0.0558464
0.0569854
0.0582183
0.059297
0.0605416
0.0616172
0.0626236
0.063833
0.0650622
0.0665121
0.0680758
0.0697968
0.0717229
0.0736622
0.0757003
0.0777784
0.0798267
0.0818712
0.0838007
0.0855528
0.0870859
0.0886948
0.0898706
0.0899593
0.0126357
0.0131203
0.0140179
0.0154126
0.0172937
0.0194921
0.021676
0.0233877
0.0240856
0.0236281
0.0227266
0.0221575
0.0223036
0.0233194
0.0253532
0.0285498
0.0327612
0.0372869
0.0412957
0.0455635
0.051818
0.0587857
0.0554503
0.0466033
0.0409211
0.0383259
0.0378811
0.0390631
0.0418724
0.0463885
0.0523496
0.0584484
0.0630568
0.0649184
0.0651642
0.0645624
0.0631974
0.0617589
0.0602194
0.059236
0.0585743
0.0574859
0.0572531
0.0572208
0.0571976
0.0579447
0.0584707
0.0590413
0.0599982
0.0615078
0.0630237
0.0644521
0.0660586
0.0675616
0.0692759
0.0708076
0.0722204
0.073851
0.0754609
0.0772941
0.0792205
0.0812926
0.0835686
0.0857933
0.0880781
0.0903391
0.0924908
0.0945788
0.0964592
0.098059
0.0993625
0.100748
0.101582
0.101098
0.014259
0.0145682
0.0151733
0.0161752
0.0176433
0.0195394
0.0217113
0.0238549
0.0254347
0.0259194
0.0254347
0.0247689
0.0245524
0.0250831
0.026526
0.0290077
0.0326122
0.0372371
0.0424646
0.0480395
0.0540508
0.0589314
0.0572879
0.0506839
0.0452857
0.0422455
0.0411542
0.0416374
0.0436389
0.047227
0.0524596