/*--------------------------------*- C++ -*----------------------------------*\
| =========                 |                                                 |
| \\      /  F ield         | OpenFOAM: The Open Source CFD Toolbox           |
|  \\    /   O peration     | Version:  2312                                  |
|   \\  /    A nd           | Website:  www.openfoam.com                      |
|    \\/     M anipulation  |                                                 |
\*---------------------------------------------------------------------------*/
FoamFile
{
    version     2.0;
    format      ascii;
    arch        "LSB;label=32;scalar=64";
    class       volSymmTensorField;
    location    "50";
    object      turbulenceProperties:devReff;
}
// * * * * * * * * * * * * * * * * * * * * * * * * * * * * * * * * * * * * * //

dimensions      [0 2 -2 0 0 0 0];

internalField   nonuniform List<symmTensor> 
11040
(
(0.016595 0.0042758 2.46921e-21 -0.0153087 -1.20251e-20 -0.00128621)
(0.0360819 0.00461014 1.59744e-20 -0.0386705 2.93881e-21 0.00258865)
(0.0875991 -0.0159801 8.64236e-20 -0.095798 1.0676e-19 0.00819885)
(0.184415 -0.0850637 -7.21924e-20 -0.198196 -2.13984e-20 0.0137814)
(0.317811 -0.224777 -9.39901e-20 -0.336577 -2.03414e-20 0.018766)
(0.485278 -0.453993 -9.02754e-20 -0.509817 1.48761e-20 0.0245387)
(0.658856 -0.765999 -3.54968e-19 -0.688413 -5.61628e-19 0.029557)
(0.76297 -1.06993 -6.35237e-19 -0.79303 -3.09647e-19 0.03006)
(0.77097 -1.28363 2.72389e-19 -0.796874 2.84481e-20 0.0259042)
(0.718788 -1.40863 -4.9707e-19 -0.73891 -1.07348e-21 0.0201219)
(0.644228 -1.48115 1.85613e-19 -0.659297 3.20007e-19 0.015069)
(0.565625 -1.52673 -8.95012e-19 -0.57706 1.63455e-19 0.0114349)
(0.487916 -1.55633 -3.54129e-19 -0.496946 -1.87056e-19 0.00902967)
(0.411724 -1.57314 -1.58727e-19 -0.419041 1.66538e-19 0.00731719)
(0.337077 -1.57788 3.46655e-20 -0.342889 -7.82783e-21 0.00581251)
(0.2643 -1.57039 -3.54288e-19 -0.268739 -2.04533e-19 0.00443891)
(0.193982 -1.55022 5.73965e-20 -0.197366 1.51803e-20 0.00338369)
(0.127055 -1.51718 1.78224e-19 -0.129864 3.53434e-19 0.00280872)
(0.064072 -1.47217 -9.29331e-20 -0.0667466 3.45375e-21 0.00267462)
(0.00578041 -1.41713 -3.53805e-20 -0.00843811 -4.63375e-20 0.0026577)
(-0.047863 -1.35332 -7.97965e-21 0.0452825 2.91474e-20 0.00258048)
(-0.0917378 -1.28672 1.31835e-19 0.0897568 7.2539e-20 0.00198098)
(-0.12272 -1.22638 -1.03153e-19 0.121627 -4.80533e-20 0.00109283)
(-0.146657 -1.17426 3.40334e-20 0.146136 1.66678e-19 0.000521386)
(-0.166494 -1.12655 -1.36778e-19 0.166582 -1.29421e-19 -8.81752e-05)
(-0.182246 -1.07869 -1.33615e-21 0.183058 -3.11275e-19 -0.00081205)
(-0.194086 -1.02885 -6.18223e-20 0.195291 -1.2489e-19 -0.00120439)
(-0.202469 -0.978169 -2.56964e-19 0.203457 7.95604e-20 -0.000988511)
(-0.208333 -0.929012 -9.8245e-20 0.208507 -7.10448e-20 -0.000174003)
(-0.212812 -0.883716 1.1034e-19 0.211884 -1.91179e-19 0.000927709)
(-0.21693 -0.843488 8.12383e-20 0.215158 9.46756e-20 0.00177251)
(-0.22096 -0.807218 4.8408e-19 0.219057 -9.50471e-20 0.00190317)
(-0.224392 -0.772262 5.93954e-19 0.223295 1.60049e-19 0.00109611)
(-0.225884 -0.734601 7.116e-20 0.226372 1.13137e-19 -0.000488158)
(-0.223787 -0.69039 1.25243e-19 0.226128 -1.49836e-20 -0.00234082)
(-0.216611 -0.63768 2.88267e-19 0.220419 4.98871e-20 -0.00380767)
(-0.203658 -0.576305 -7.6219e-20 0.207931 3.2832e-20 -0.00427316)
(-0.185326 -0.508951 5.09831e-20 0.18892 -1.22987e-20 -0.00359337)
(-0.161394 -0.432961 -1.34552e-19 0.163031 1.12499e-19 -0.00163648)
(-0.13423 -0.366097 -3.04832e-20 0.134584 1.30367e-19 -0.000354542)
(-0.0970066 -0.242423 -5.86547e-21 0.093855 -1.42865e-20 0.00315154)
(0.00599331 -0.00237437 -3.07837e-21 -0.00608019 2.07235e-21 8.68848e-05)
(0.00250694 -0.00661303 -2.97171e-22 -0.00129288 8.86953e-21 -0.00121406)
(-0.000408617 -0.00697285 -4.16178e-20 0.002828 -3.64665e-20 -0.00241938)
(-0.00109433 -0.00598011 -4.09791e-21 0.0039073 -6.13057e-21 -0.00281297)
(-0.000694111 -0.00549329 1.83984e-22 0.00354755 -1.26746e-21 -0.00285344)
(-0.000110718 -0.00642245 -1.39037e-20 0.00329681 -1.36368e-20 -0.00318609)
(0.000936843 -0.0113881 -1.01595e-20 0.00397923 4.84422e-20 -0.00491607)
(0.00364717 -0.0222656 1.06862e-19 0.00425359 1.13005e-19 -0.00790076)
(0.00812236 -0.0355196 -7.51929e-21 0.00175854 -1.96853e-20 -0.0098809)
(0.0133056 -0.0486602 6.38709e-20 -0.00307723 2.45359e-20 -0.0102284)
(0.0181741 -0.0610744 -9.6857e-20 -0.00873202 -1.87942e-19 -0.0094421)
(0.0219727 -0.0725521 6.53677e-19 -0.0138766 7.33974e-20 -0.00809607)
(0.0241747 -0.0830011 -6.40463e-21 -0.0175766 1.79749e-19 -0.00659811)
(0.0246138 -0.0924451 5.0683e-19 -0.0193851 3.6748e-20 -0.00522874)
(0.0234327 -0.101029 -2.67754e-19 -0.019267 -5.13996e-20 -0.00416568)
(0.0210334 -0.108932 8.59041e-20 -0.0176195 2.10639e-19 -0.00341388)
(0.0178945 -0.116199 1.63489e-19 -0.0150879 7.19255e-20 -0.00280663)
(0.0143656 -0.122807 1.7306e-19 -0.0122063 -1.96334e-19 -0.00215926)
(0.0104798 -0.128684 1.48619e-21 -0.00903097 -9.76982e-21 -0.00144878)
(0.00612344 -0.133774 -1.5395e-20 -0.0052753 3.00337e-20 -0.000848133)
(0.00118294 -0.138367 -5.27487e-20 -0.000663477 1.10046e-20 -0.000519466)
(-0.00376749 -0.141639 -1.02951e-19 0.00418774 -8.07547e-20 -0.000420249)
(-0.00820496 -0.142227 2.07439e-19 0.0087449 1.26459e-19 -0.000539938)
(-0.0122297 -0.140799 3.26689e-20 0.0130157 -1.21792e-19 -0.000786025)
(-0.0154075 -0.138848 4.37824e-20 0.0162719 7.8681e-20 -0.000864423)
(-0.0175396 -0.13731 -9.65414e-20 0.0180537 3.39012e-19 -0.00051413)
(-0.0190285 -0.136414 -4.46862e-20 0.0188275 1.80061e-19 0.000200992)
(-0.0203673 -0.135576 4.01929e-19 0.0193773 -2.7345e-20 0.000990098)
(-0.0220607 -0.134291 -5.67826e-22 0.0205902 5.58162e-20 0.00147048)
(-0.0242702 -0.132174 -2.50147e-19 0.0228626 1.30886e-19 0.00140759)
(-0.0268515 -0.129121 -3.61796e-19 0.0260748 -7.01981e-20 0.000776737)
(-0.0294552 -0.125815 -6.69628e-19 0.0296705 -1.13036e-19 -0.000215221)
(-0.03153 -0.122868 -5.38049e-19 0.0326944 -2.44827e-19 -0.00116443)
(-0.0327893 -0.121254 -2.71653e-19 0.0344633 -6.54071e-20 -0.00167401)
(-0.0331357 -0.121612 1.57573e-19 0.0345864 -2.1417e-20 -0.00145064)
(-0.0327597 -0.124117 -5.27958e-19 0.0331886 -1.38218e-19 -0.000428909)
(-0.0322799 -0.128583 4.08664e-19 0.0310936 -8.82208e-20 0.00118632)
(-0.031686 -0.134431 -2.95217e-19 0.0288232 5.69469e-20 0.00286279)
(-0.0329478 -0.140809 3.5884e-20 0.0283061 -1.3892e-19 0.00464171)
(-0.0298768 -0.148491 1.33118e-19 0.0263218 -2.52888e-19 0.00355498)
(-0.0401676 -0.161501 -3.08109e-19 0.0305409 1.29304e-19 0.00962669)
(0.00444271 -0.00153806 7.96187e-22 -0.00444404 2.14969e-21 1.33224e-06)
(0.00152671 -0.00358787 -1.38636e-20 -0.00162292 -8.2243e-21 9.62117e-05)
(-0.00104865 -0.00221943 2.21344e-20 0.000487068 1.05311e-20 0.000561581)
(-0.00172677 -0.000169826 2.75567e-20 0.00070422 1.79304e-20 0.00102255)
(-0.00140398 0.001093 -8.13435e-22 0.000210384 -6.6845e-22 0.0011936)
(-0.000918664 0.00158102 8.88818e-21 -0.000234718 7.34972e-21 0.00115338)
(-0.000568105 0.00165446 1.77062e-20 -0.000456636 5.86089e-21 0.00102474)
(-0.000344307 0.00154997 1.72893e-20 -0.000532081 -1.37854e-21 0.000876389)
(-0.000192943 0.00138213 -1.32465e-20 -0.000547558 -3.66917e-21 0.000740501)
(-7.34702e-05 0.00120793 7.98248e-22 -0.000566589 -3.95884e-21 0.000640059)
(4.78959e-05 0.00101233 -1.27676e-20 -0.000625837 5.1848e-21 0.000577941)
(0.000215661 0.000722173 -3.41234e-20 -0.000782761 -2.70013e-20 0.0005671)
(0.000508213 1.58195e-05 4.65794e-20 -0.00108956 6.23178e-21 0.000581347)
(0.000977104 -0.00165979 -7.23681e-20 -0.00153529 -2.83977e-20 0.000558186)
(0.00157941 -0.00472803 6.6233e-20 -0.00203889 4.84362e-20 0.00045948)
(0.00220052 -0.00931977 3.16566e-20 -0.00247845 -2.03251e-20 0.000277933)
(0.00271146 -0.0154141 -2.00939e-20 -0.00272704 -5.4221e-20 1.55797e-05)
(0.00299385 -0.022857 -2.74297e-20 -0.00270773 -4.72637e-20 -0.000286121)
(0.00295029 -0.0313651 -9.27411e-22 -0.00243071 -1.83565e-21 -0.000519576)
(0.00248413 -0.040571 7.19766e-21 -0.00187688 4.20739e-21 -0.000607248)
(0.00144565 -0.0502182 8.67758e-20 -0.000898536 1.08184e-20 -0.000547115)
(-0.000306095 -0.0597725 7.91808e-20 0.000809871 1.14573e-20 -0.000503775)
(-0.00271727 -0.068464 -1.93743e-20 0.00340752 -7.62511e-20 -0.000690246)
(-0.00537572 -0.0758126 9.70745e-21 0.00629216 -3.60407e-20 -0.000916435)
(-0.00772127 -0.0818797 -1.26833e-19 0.00869151 -4.49174e-20 -0.000970234)
(-0.0095324 -0.0869277 3.22721e-19 0.010311 -9.99444e-20 -0.000778575)
(-0.0109865 -0.0910513 2.03782e-19 0.0113781 2.10014e-20 -0.000391653)
(-0.0124429 -0.0943131 -3.88707e-19 0.0124353 -1.03519e-19 7.53079e-06)
(-0.0142275 -0.096653 -7.6007e-20 0.0140239 5.54313e-20 0.000203579)
(-0.0164439 -0.0980778 7.88672e-20 0.0163625 1.18607e-19 8.14157e-05)
(-0.0189169 -0.0987368 3.94696e-19 0.0192302 -6.26959e-21 -0.000313299)
(-0.0212331 -0.0988879 -1.80612e-19 0.0220431 2.48196e-19 -0.000809914)
(-0.0229547 -0.0990104 4.86652e-19 0.0241368 -3.74504e-20 -0.00118207)
(-0.023762 -0.099452 6.03271e-19 0.0250101 -4.32404e-20 -0.00124807)
(-0.0236186 -0.100513 -1.45979e-19 0.0245509 -3.81964e-20 -0.000932331)
(-0.0227464 -0.102267 -4.03934e-19 0.0230455 1.29735e-19 -0.000299083)
(-0.0217077 -0.104597 -5.52184e-19 0.0212215 5.20705e-20 0.000486227)
(-0.0204087 -0.107229 5.88276e-19 0.019359 -9.38235e-20 0.00104974)
(-0.0211128 -0.110739 1.03207e-19 0.019468 2.32606e-21 0.00164481)
(-0.0166678 -0.113919 1.78267e-19 0.0164269 -1.6113e-20 0.000240878)
(-0.0299592 -0.128208 2.9493e-19 0.0264581 -1.82126e-19 0.00350107)
(0.00294712 -0.000870116 -6.14107e-24 -0.00297202 -7.89225e-22 2.49037e-05)
(0.00151355 -0.00252538 4.18405e-21 -0.00150339 8.13227e-22 -1.01567e-05)
(-0.000295151 -0.00263297 -1.59919e-20 0.000393856 -6.9264e-21 -9.87045e-05)
(-0.00135222 -0.00192161 -2.37489e-20 0.00157839 -1.55881e-20 -0.000226168)
(-0.00161518 -0.00116698 2.38378e-21 0.00198684 1.86961e-21 -0.000371652)
(-0.00146299 -0.000673619 1.4663e-20 0.00193619 5.00064e-21 -0.000473202)
(-0.00120791 -0.000415747 -4.02812e-21 0.00171721 -5.28614e-21 -0.000509301)
(-0.000975845 -0.000284826 -5.75053e-21 0.00147146 -5.72867e-21 -0.000495618)
(-0.000784002 -0.000208916 5.58301e-21 0.0012378 4.28696e-21 -0.000453801)
(-0.000622888 -0.000159238 -6.79478e-21 0.00102177 -7.57385e-22 -0.000398881)
(-0.000484848 -0.000128547 1.63003e-20 0.00082519 6.63966e-21 -0.000340342)
(-0.000364533 -0.000109925 -4.10506e-21 0.000644743 3.39285e-21 -0.00028021)
(-0.000259373 -9.7413e-05 -6.85067e-22 0.00047766 -3.41588e-21 -0.000218287)
(-0.000169818 -8.98973e-05 1.37132e-20 0.000327252 4.77288e-21 -0.000157434)
(-9.55318e-05 -9.42057e-05 5.86968e-21 0.000198954 -3.49371e-21 -0.000103422)
(-3.35064e-05 -0.000123418 -4.91204e-21 9.53049e-05 -2.39765e-21 -6.17986e-05)
(2.34582e-05 -0.000201318 -8.96847e-21 1.21727e-05 7.14238e-22 -3.56309e-05)
(8.98191e-05 -0.000378597 -4.38384e-21 -6.62822e-05 -4.75255e-22 -2.35369e-05)
(0.000192756 -0.000768561 7.48045e-22 -0.000176699 6.86612e-22 -1.60573e-05)
(0.000366429 -0.00156002 -9.38322e-22 -0.000377232 -1.49874e-21 1.08026e-05)
(0.000620355 -0.00300172 -7.07401e-21 -0.000719218 -3.89932e-21 9.88628e-05)
(0.000832612 -0.00518581 -2.5731e-20 -0.00107367 -8.06411e-21 0.000241055)
(0.000819059 -0.00793099 -1.07274e-20 -0.00117267 -5.80563e-21 0.000353615)
(0.000543566 -0.0111346 -2.71981e-20 -0.000938305 8.62448e-21 0.000394739)
(8.31262e-05 -0.0147921 -5.85792e-20 -0.000429668 4.24957e-20 0.000346541)
(-0.000474694 -0.0188812 -2.61375e-19 0.000240437 -1.75451e-20 0.000234257)
(-0.00108536 -0.023283 3.83325e-20 0.0009444 -3.42886e-20 0.000140955)
(-0.0017716 -0.0278224 5.2596e-20 0.00163997 7.75524e-20 0.000131629)
(-0.00260474 -0.032313 1.84491e-19 0.00238293 8.94843e-22 0.000221809)
(-0.00366544 -0.0366411 1.55857e-19 0.00329432 -4.99067e-20 0.00037112)
(-0.00496532 -0.0408089 -2.76849e-19 0.00443998 -8.803e-21 0.000525341)
(-0.00642477 -0.0449511 2.41078e-19 0.00579515 -7.38438e-21 0.000629612)
(-0.00789325 -0.049281 -7.72951e-19 0.00724781 9.29101e-20 0.000645442)
(-0.00920459 -0.0540194 -1.92336e-19 0.00863305 -1.32688e-20 0.000571536)
(-0.010249 -0.0593029 -1.78768e-19 0.00981363 5.7159e-20 0.000435346)
(-0.010993 -0.0651032 -7.65658e-20 0.0107156 5.32508e-20 0.000277473)
(-0.0115829 -0.0712749 -2.64308e-21 0.0114156 1.9718e-20 0.000167396)
(-0.0117597 -0.0776082 9.35834e-20 0.0117524 -9.61057e-21 7.30217e-06)
(-0.0130773 -0.0846351 -1.85293e-19 0.0128416 3.58726e-20 0.000235711)
(-0.010194 -0.0908827 3.1817e-19 0.0111398 5.25137e-21 -0.000945851)
(-0.0220686 -0.106634 -8.13083e-20 0.0194412 5.90064e-20 0.00262747)
(0.00199193 -0.000514536 2.34984e-21 -0.00200155 9.59733e-22 9.61561e-06)
(0.00130773 -0.00161536 -3.49001e-21 -0.00131548 -2.6617e-21 7.74171e-06)
(0.000168082 -0.00192186 1.60452e-20 -0.000161882 4.38534e-21 -6.20038e-06)
(-0.000720163 -0.00149075 2.22594e-20 0.00067857 1.09346e-20 4.15932e-05)
(-0.00106768 -0.00077722 -1.95603e-20 0.00095737 -8.15522e-21 0.000110311)
(-0.00100624 -0.000172446 1.46088e-21 0.000836315 -7.54931e-22 0.000169923)
(-0.000786655 0.000204538 -3.0107e-21 0.000573958 -1.41319e-21 0.000212697)
(-0.000561969 0.000401636 -9.27523e-21 0.000322852 -1.88187e-21 0.000239117)
(-0.000380481 0.000492896 2.7739e-21 0.000129646 3.7058e-22 0.000250835)
(-0.000243727 0.000526681 3.6733e-21 -5.74053e-06 1.10368e-21 0.000249467)
(-0.000142516 0.000528542 5.71915e-21 -9.49503e-05 -2.50907e-21 0.000237466)
(-6.97323e-05 0.000510921 -2.8381e-22 -0.000146758 6.65393e-22 0.00021649)
(-2.10906e-05 0.000482424 -5.56854e-22 -0.000167932 6.13813e-22 0.000189022)
(7.80469e-06 0.000452065 -8.21246e-21 -0.000167478 -6.48295e-21 0.000159673)
(2.30415e-05 0.000423462 -4.51955e-21 -0.000154674 -1.11213e-22 0.000131633)
(3.21745e-05 0.000395357 2.78053e-22 -0.000137889 3.95332e-22 0.000105715)
(3.95273e-05 0.000362679 2.68809e-21 -0.000119107 1.8221e-21 7.95796e-05)
(4.58943e-05 0.000322436 -3.26864e-21 -9.78267e-05 1.69344e-22 5.19324e-05)
(5.19073e-05 0.000277249 5.57416e-22 -7.80706e-05 -1.38665e-22 2.61633e-05)
(5.95612e-05 0.000232638 -9.11296e-22 -6.74173e-05 1.52842e-22 7.85611e-06)
(7.20123e-05 0.000190275 2.10767e-21 -7.29858e-05 6.79147e-22 9.73562e-07)
(8.64315e-05 0.000146386 -1.45286e-23 -8.97421e-05 5.70072e-22 3.31064e-06)
(9.60396e-05 9.95503e-05 -3.06604e-21 -0.000103838 6.50078e-22 7.79859e-06)
(0.000100421 4.12526e-05 5.01473e-21 -0.000108991 1.06664e-21 8.56939e-06)
(0.000102516 -5.28155e-05 1.22646e-20 -0.000100452 -1.39152e-21 -2.06383e-06)
(0.000102615 -0.000224506 8.30436e-21 -7.00153e-05 8.4357e-21 -3.25998e-05)
(0.000100196 -0.000525575 -2.17646e-21 -1.65779e-05 6.47024e-23 -8.36179e-05)
(9.61061e-05 -0.00100002 2.7019e-20 4.31303e-05 -8.45308e-21 -0.000139236)
(9.14773e-05 -0.00166673 -4.55756e-21 7.2431e-05 -1.18778e-20 -0.000163908)
(7.69726e-05 -0.00252852 -4.50416e-20 4.61289e-05 2.27515e-22 -0.000123101)
(3.03e-05 -0.00360408 4.86171e-20 -2.22425e-05 9.22443e-21 -8.05756e-06)
(-8.06e-05 -0.00495684 -1.03519e-20 -6.67266e-05 -7.79255e-21 0.000147327)
(-0.000284647 -0.00669422 2.18587e-19 1.1942e-05 -1.07425e-21 0.000272705)
(-0.000596848 -0.00896798 1.24011e-19 0.000307322 -1.70087e-20 0.000289525)
(-0.00101281 -0.0119417 8.80107e-20 0.000867957 -7.42548e-21 0.000144856)
(-0.00150747 -0.0157638 9.14046e-20 0.00167146 -7.70654e-21 -0.000163992)
(-0.00207966 -0.0205572 -7.49355e-20 0.00263431 1.00727e-20 -0.000554649)
(-0.00254321 -0.0265243 1.64859e-20 0.00350921 -4.17583e-22 -0.000965998)
(-0.00359123 -0.0343008 -7.62485e-20 0.00459133 3.0985e-21 -0.0010001)
(-0.00258553 -0.0429407 -2.81244e-19 0.00414454 5.45616e-20 -0.00155901)
(-0.0102531 -0.0621962 2.32289e-19 0.009005 -2.43527e-20 0.00124806)
(0.00133876 -0.000314985 -2.72595e-21 -0.0013427 -1.31013e-21 3.93953e-06)
(0.00102063 -0.00101474 1.09184e-20 -0.00103261 2.52742e-21 1.19737e-05)
(0.000365233 -0.00138021 -7.16872e-21 -0.000351346 8.76879e-22 -1.38872e-05)
(-0.000312474 -0.00131568 -6.67551e-21 0.000328372 -2.08163e-21 -1.58974e-05)
(-0.000760569 -0.000957556 4.50086e-21 0.000782919 1.64287e-21 -2.23501e-05)
(-0.000920449 -0.000541948 -2.65723e-21 0.000963426 -1.15355e-21 -4.29776e-05)
(-0.000886985 -0.000218609 -4.55313e-21 0.000956284 -1.53569e-21 -6.92987e-05)
(-0.000774855 -1.60518e-05 -4.94069e-22 0.000867458 1.10458e-21 -9.26037e-05)
(-0.000650706 9.59249e-05 -1.87892e-22 0.000760541 2.95561e-22 -0.000109835)
(-0.00053852 0.000152405 -8.94866e-21 0.000659693 -3.10433e-21 -0.000121173)
(-0.000442387 0.000176679 -6.84254e-21 0.000570036 -3.91614e-22 -0.000127649)
(-0.000360579 0.000181231 4.32306e-21 0.000490985 -2.7894e-22 -0.000130405)
(-0.000291525 0.000173676 1.39315e-21 0.000421397 8.48667e-22 -0.000129872)
(-0.000234016 0.000160936 -1.04986e-20 0.000359246 1.28132e-22 -0.00012523)
(-0.00018462 0.000150156 8.99761e-21 0.000298602 1.82021e-21 -0.000113982)
(-0.000140014 0.000143754 -4.18238e-21 0.000237065 -4.36427e-22 -9.70509e-05)
(-9.80384e-05 0.000138041 -4.41084e-23 0.000176901 -1.6334e-21 -7.88623e-05)
(-5.88286e-05 0.000127551 -1.0132e-21 0.000123229 1.07074e-21 -6.44004e-05)
(-2.41534e-05 0.000111106 -9.37826e-22 7.94775e-05 -1.89936e-22 -5.53241e-05)
(5.40016e-06 9.31512e-05 6.25476e-22 4.34964e-05 4.31306e-22 -4.88966e-05)
(3.14801e-05 7.87155e-05 9.47603e-22 7.99223e-06 -5.48922e-22 -3.94724e-05)
(5.24065e-05 6.77741e-05 -7.14023e-22 -2.72609e-05 3.40006e-23 -2.51456e-05)
(6.4227e-05 6.01514e-05 1.31233e-21 -5.39906e-05 1.05707e-22 -1.02364e-05)
(6.87562e-05 5.46221e-05 4.71555e-22 -6.98551e-05 -5.5788e-22 1.0989e-06)
(6.95529e-05 4.64656e-05 -6.37143e-21 -7.44394e-05 -6.5943e-22 4.8865e-06)
(6.85689e-05 3.25978e-05 4.67698e-21 -6.88202e-05 -8.77559e-22 2.51221e-07)
(6.73545e-05 1.50209e-05 5.09841e-22 -5.85306e-05 -5.84556e-22 -8.82383e-06)
(6.76621e-05 -1.77462e-06 -7.65333e-21 -5.13259e-05 -2.1177e-22 -1.63362e-05)
(7.10303e-05 -1.45648e-05 -5.55325e-21 -5.38102e-05 5.12095e-22 -1.72201e-05)
(7.76217e-05 -2.28057e-05 3.46131e-21 -6.78545e-05 6.64246e-22 -9.76726e-06)
(8.682e-05 -2.89936e-05 2.53541e-21 -9.13331e-05 -7.64211e-22 4.51308e-06)
(9.80229e-05 -3.84925e-05 7.12242e-22 -0.000119694 2.44415e-22 2.16715e-05)
(0.000111675 -5.98194e-05 -9.56928e-21 -0.000148559 -6.87115e-22 3.68838e-05)
(0.000130694 -0.000108628 -1.20277e-20 -0.000176046 4.40852e-22 4.53528e-05)
(0.000160601 -0.000218511 -4.4728e-21 -0.000200978 -5.76644e-22 4.03773e-05)
(0.000208965 -0.000463034 9.90123e-21 -0.000216517 -1.39753e-21 7.55163e-06)
(0.000273349 -0.000976018 1.96749e-21 -0.000200686 8.15407e-22 -7.26628e-05)
(0.000374022 -0.00194992 1.69751e-20 -0.000156093 -2.70489e-21 -0.000217929)
(0.00038125 -0.0037921 6.00056e-20 -4.6098e-05 -8.87292e-21 -0.000335152)
(0.000689584 -0.00633665 5.79127e-21 -0.000152096 -6.0313e-21 -0.000537488)
(-0.000749713 -0.0146623 -1.10614e-19 0.000540222 2.29614e-20 0.000209491)
(0.000910277 -0.00020474 -3.30211e-22 -0.000909143 -1.67908e-22 -1.13392e-06)
(0.000757182 -0.000638889 1.37803e-22 -0.000769678 1.00087e-21 1.24962e-05)
(0.000399689 -0.000931285 -4.07193e-21 -0.000394564 -1.35829e-21 -5.12481e-06)
(-4.12327e-05 -0.00100393 -6.10608e-21 4.45094e-05 -3.25597e-21 -3.27674e-06)
(-0.000420597 -0.000846631 -3.18373e-21 0.000416152 -1.179e-21 4.44527e-06)
(-0.000633303 -0.000561174 9.5032e-21 0.000621342 3.65603e-21 1.19609e-05)
(-0.000678708 -0.000270773 -2.77345e-21 0.000658357 -6.72452e-22 2.03509e-05)
(-0.000618386 -4.33973e-05 2.56961e-21 0.000587893 9.44548e-22 3.04924e-05)
(-0.000513891 0.00010963 1.09395e-20 0.000472291 2.95928e-21 4.16e-05)
(-0.000402277 0.000202838 -2.56768e-22 0.000350051 1.47243e-21 5.22256e-05)
(-0.000299628 0.000254563 1.47532e-20 0.000238521 3.44186e-21 6.11069e-05)
(-0.000210787 0.000278517 -1.20035e-20 0.000143276 -3.95511e-21 6.75108e-05)
(-0.000136709 0.000283607 8.84718e-21 6.57785e-05 2.82486e-21 7.09306e-05)
(-7.74623e-05 0.000277289 2.97404e-22 5.82905e-06 1.33238e-22 7.16333e-05)
(-3.26359e-05 0.000266323 -4.21551e-21 -3.80177e-05 -1.93951e-21 7.06536e-05)
(2.54128e-07 0.000255472 1.39636e-21 -6.93208e-05 9.84027e-22 6.90667e-05)
(2.60337e-05 0.000245097 -5.89153e-21 -9.29972e-05 2.56008e-22 6.69634e-05)
(4.82836e-05 0.000231694 2.618e-21 -0.000110701 6.55563e-22 6.24178e-05)
(6.7163e-05 0.000212122 -6.56307e-22 -0.000120511 3.74599e-22 5.33479e-05)
(8.14723e-05 0.000187586 4.34475e-22 -0.000121975 -1.26472e-21 4.05028e-05)
(9.16318e-05 0.000162475 -3.98359e-22 -0.000120078 5.08036e-22 2.84463e-05)
(9.80787e-05 0.000140911 4.27872e-22 -0.000119875 -1.61563e-23 2.17959e-05)
(0.00010056 0.00012611 -2.94824e-21 -0.000122263 -4.52785e-22 2.17034e-05)
(0.000100365 0.00011747 1.26437e-21 -0.000125621 -9.59724e-23 2.52561e-05)
(9.98918e-05 0.0001096 2.56724e-21 -0.000126969 8.90632e-22 2.70772e-05)
(9.94412e-05 9.69337e-05 -1.62794e-21 -0.000122141 -7.54797e-22 2.26996e-05)
(9.82594e-05 7.89278e-05 -4.11054e-21 -0.000110399 -9.02099e-23 1.214e-05)
(9.63476e-05 5.9655e-05 2.45715e-21 -9.5929e-05 1.02876e-21 -4.18544e-07)
(9.46685e-05 4.44003e-05 2.78351e-23 -8.53391e-05 1.11864e-21 -9.32942e-06)
(9.40848e-05 3.67336e-05 1.76268e-21 -8.33435e-05 -3.47181e-22 -1.07413e-05)
(9.48448e-05 3.68087e-05 -1.51476e-22 -9.05262e-05 -4.74839e-22 -4.31864e-06)
(9.64777e-05 4.12946e-05 3.17151e-21 -0.000102996 -4.71488e-22 6.51821e-06)
(9.80505e-05 4.48172e-05 3.17577e-23 -0.000114396 4.62473e-22 1.63456e-05)
(9.87028e-05 4.22332e-05 -1.54294e-21 -0.000118964 8.23498e-22 2.0261e-05)
(9.78832e-05 3.05771e-05 -5.06267e-21 -0.000113996 8.41778e-22 1.61132e-05)
(9.57397e-05 1.02212e-05 4.19738e-21 -0.000100789 -6.87649e-22 5.0495e-06)
(9.23238e-05 -1.73843e-05 4.70085e-21 -8.37161e-05 -7.40537e-22 -8.60772e-06)
(9.00276e-05 -4.78489e-05 -4.08569e-21 -6.84288e-05 5.5364e-22 -2.15987e-05)
(8.7063e-05 -9.56629e-05 1.64948e-21 -5.97598e-05 -1.11766e-22 -2.73033e-05)
(8.84351e-05 -0.000137214 -6.03134e-23 -5.55902e-05 -3.15792e-23 -3.2845e-05)
(0.000152572 -0.000690904 -9.72004e-22 -0.000143896 -7.91151e-22 -8.67606e-06)
(0.000622093 -0.000139391 -6.32401e-23 -0.000618888 1.97067e-22 -3.20587e-06)
(0.000543771 -0.000410011 -2.04204e-21 -0.000554462 -5.05933e-22 1.06912e-05)
(0.000349249 -0.000614985 2.13421e-21 -0.000346558 -6.14636e-22 -2.6905e-06)
(8.43594e-05 -0.000723954 8.68464e-21 -8.09689e-05 2.10781e-21 -3.39049e-06)
(-0.000194901 -0.000696588 1.73063e-21 0.00019672 9.21595e-22 -1.81911e-06)
(-0.000411041 -0.000552516 1.19657e-21 0.000413841 7.31442e-22 -2.79991e-06)
(-0.000525064 -0.00035681 -1.43864e-20 0.000531016 -4.38983e-21 -5.95215e-06)
(-0.00054753 -0.000169558 -1.19763e-21 0.000557746 -5.7616e-22 -1.02164e-05)
(-0.000511518 -2.13448e-05 -4.27869e-21 0.000526389 -1.55006e-21 -1.48711e-05)
(-0.000448017 8.2118e-05 8.20611e-21 0.000467594 2.41123e-21 -1.95777e-05)
(-0.000377136 0.000147539 -6.63717e-21 0.000401419 -3.14024e-21 -2.42827e-05)
(-0.000308931 0.000184518 -5.35252e-21 0.000337837 1.45218e-22 -2.89066e-05)
(-0.000247656 0.000201097 8.68086e-21 0.000281183 4.54589e-22 -3.35266e-05)
(-0.000195057 0.000203719 -9.25734e-21 0.00023325 -1.36346e-21 -3.81929e-05)
(-0.000151756 0.000198113 4.34536e-22 0.000193806 -1.68832e-22 -4.20505e-05)
(-0.000116543 0.000189658 2.1054e-21 0.000160054 7.41522e-22 -4.35116e-05)
(-8.60937e-05 0.0001816 6.40939e-21 0.000127738 1.13252e-21 -4.16444e-05)
(-5.73487e-05 0.000173179 2.61716e-22 9.52664e-05 2.61382e-22 -3.79177e-05)
(-2.93675e-05 0.000161069 1.54498e-21 6.43107e-05 -2.21556e-23 -3.49432e-05)
(-3.3207e-06 0.00014327 -7.23542e-21 3.76253e-05 -6.08626e-22 -3.43047e-05)
(1.88895e-05 0.000121842 4.91117e-21 1.57197e-05 6.85683e-22 -3.46093e-05)
(3.55558e-05 0.000101398 -1.12159e-21 -2.80378e-06 -1.84316e-22 -3.2752e-05)
(4.61073e-05 8.64028e-05 -1.55277e-21 -1.91495e-05 3.50942e-22 -2.69578e-05)
(5.27792e-05 7.84514e-05 -2.2984e-22 -3.52228e-05 1.66239e-22 -1.75564e-05)
(5.89253e-05 7.41335e-05 -6.81307e-22 -5.10666e-05 -2.55267e-22 -7.85869e-06)
(6.56975e-05 6.7364e-05 -3.39364e-22 -6.32891e-05 3.44598e-22 -2.40842e-06)
(7.20476e-05 5.47584e-05 -1.58434e-21 -6.84863e-05 9.68911e-22 -3.56129e-06)
(7.65763e-05 3.76596e-05 1.27348e-21 -6.65508e-05 -3.85947e-22 -1.00255e-05)
(7.88851e-05 2.06668e-05 4.4308e-21 -6.11334e-05 -4.03138e-22 -1.77517e-05)
(7.96497e-05 8.8663e-06 9.92701e-22 -5.74789e-05 -5.71788e-22 -2.21707e-05)
(8.02229e-05 5.15879e-06 -4.12405e-21 -5.9903e-05 4.45544e-22 -2.03199e-05)
(8.20699e-05 8.84036e-06 -1.91265e-21 -6.98199e-05 -7.63251e-23 -1.225e-05)
(8.61137e-05 1.56723e-05 -2.13927e-23 -8.51664e-05 8.58651e-23 -9.47247e-07)
(9.24855e-05 1.96372e-05 3.98753e-21 -0.000101481 -4.78905e-22 8.99504e-06)
(0.000100187 1.53037e-05 2.26463e-21 -0.000113621 -1.06944e-23 1.34339e-05)
(0.000107326 4.41897e-07 -1.72121e-21 -0.000117637 -3.45944e-24 1.03114e-05)
(0.000111459 -2.42076e-05 -3.69695e-21 -0.000112705 4.59419e-22 1.24604e-06)
(0.000110382 -5.1284e-05 2.08173e-21 -9.97589e-05 -2.62483e-22 -1.06229e-05)
(0.000101121 -8.07384e-05 -1.42443e-21 -8.378e-05 2.00095e-22 -1.73412e-05)
(8.2634e-05 -9.19286e-05 2.71397e-21 -6.18426e-05 -2.99288e-22 -2.07914e-05)
(5.88713e-05 -0.000119315 4.05148e-22 -5.15433e-05 -8.50795e-23 -7.32799e-06)
(0.000427098 -9.8665e-05 -3.07361e-22 -0.000423243 1.77814e-22 -3.85495e-06)
(0.000384235 -0.000269735 -1.60828e-21 -0.000392818 -8.06883e-22 8.58272e-06)
(0.000274851 -0.000404041 6.61979e-21 -0.000273617 1.18116e-21 -1.23411e-06)
(0.000122944 -0.000499188 -1.40281e-21 -0.000121504 5.47689e-22 -1.43927e-06)
(-5.87178e-05 -0.000524451 2.12501e-21 5.84391e-05 4.32985e-22 2.78687e-07)
(-0.000229641 -0.000469134 -1.85658e-21 0.000228687 -5.12283e-22 9.54062e-07)
(-0.0003519 -0.000355168 5.06558e-21 0.000350577 1.45533e-21 1.3233e-06)
(-0.000411486 -0.000218347 5.63981e-21 0.000409419 1.41177e-21 2.06679e-06)
(-0.000416229 -8.86767e-05 4.06094e-22 0.000412699 7.7645e-22 3.53003e-06)
(-0.000383643 1.7248e-05 7.55101e-21 0.000377841 1.61684e-21 5.80205e-06)
(-0.000331133 9.49344e-05 1.3379e-21 0.000322503 3.67549e-22 8.62931e-06)
(-0.000271193 0.000146902 -5.1937e-21 0.000259465 -8.29326e-22 1.17284e-05)
(-0.000211405 0.000177894 -1.45584e-21 0.000196635 -1.09685e-21 1.47702e-05)
(-0.000155969 0.000192847 5.00554e-21 0.000138713 1.47209e-21 1.72561e-05)
(-0.00010733 0.00019638 -1.18637e-20 8.82003e-05 -2.28598e-21 1.91293e-05)
(-6.66031e-05 0.00019332 4.53836e-21 4.5721e-05 1.06146e-21 2.08822e-05)
(-3.31385e-05 0.000187745 -3.39122e-21 1.01254e-05 -1.1753e-21 2.30132e-05)
(-4.69492e-06 0.000181198 6.04508e-21 -2.06599e-05 6.66695e-22 2.53548e-05)
(2.1042e-05 0.000172142 -2.08128e-22 -4.79137e-05 -6.39748e-22 2.68717e-05)
(4.44137e-05 0.000158221 -1.87431e-21 -7.05241e-05 7.42673e-22 2.61105e-05)
(6.34821e-05 0.000139045 2.76827e-21 -8.6143e-05 -4.85348e-22 2.26608e-05)
(7.63458e-05 0.000118074 1.8366e-22 -9.45801e-05 2.23551e-22 1.82343e-05)
(8.26403e-05 0.000100585 -6.25136e-22 -9.81135e-05 3.98611e-23 1.54733e-05)
(8.42301e-05 8.98923e-05 2.61812e-21 -0.000100172 -3.39657e-23 1.59415e-05)
(8.48699e-05 8.50121e-05 7.18558e-22 -0.000103663 2.8891e-22 1.87932e-05)
(8.71343e-05 8.10481e-05 2.16921e-21 -0.000108256 -1.92208e-22 2.11214e-05)
(9.1041e-05 7.3246e-05 3.7033e-21 -0.000111052 -2.30767e-22 2.00105e-05)
(9.49676e-05 6.01503e-05 -1.70429e-21 -0.000109483 1.6278e-22 1.45158e-05)
(9.72299e-05 4.40286e-05 -1.25296e-21 -0.000103413 -2.80563e-22 6.183e-06)
(9.70976e-05 2.92152e-05 -3.76514e-21 -9.53339e-05 3.98005e-22 -1.7637e-06)
(9.51074e-05 1.9691e-05 1.70305e-21 -8.91009e-05 4.29059e-23 -6.00649e-06)
(9.28448e-05 1.70027e-05 -1.19163e-21 -8.81022e-05 2.86848e-22 -4.74263e-06)
(9.21913e-05 1.93414e-05 1.45004e-21 -9.36607e-05 -1.20336e-22 1.46947e-06)
(9.46325e-05 2.2192e-05 -3.8706e-21 -0.000104537 2.23109e-22 9.90492e-06)
(0.000100381 2.00426e-05 5.23146e-22 -0.000117241 -1.00527e-22 1.68601e-05)
(0.000108243 8.80274e-06 -1.05348e-21 -0.000127324 1.81168e-22 1.90813e-05)
(0.0001158 -1.3402e-05 5.79501e-21 -0.000131237 -6.25865e-22 1.54366e-05)
(0.00011981 -4.37337e-05 -3.93881e-21 -0.000126229 4.78816e-22 6.41906e-06)
(0.000116118 -7.99009e-05 3.36545e-22 -0.000112891 -2.78604e-23 -3.22744e-06)
(0.00010161 -0.000109841 -2.12639e-21 -8.90127e-05 3.08037e-22 -1.25975e-05)
(6.95636e-05 -0.000128389 2.04155e-21 -6.02762e-05 -1.70468e-22 -9.28735e-06)
(0.000293583 -7.18597e-05 -1.20874e-21 -0.00028989 -3.69414e-22 -3.69323e-06)
(0.000268606 -0.000181848 4.87761e-21 -0.000275293 6.25623e-22 6.68676e-06)
(0.000203693 -0.000267833 -1.2825e-21 -0.00020292 5.72982e-22 -7.73282e-07)
(0.000116674 -0.000337875 -8.43387e-21 -0.000115682 -1.47692e-21 -9.91723e-07)
(5.41523e-06 -0.000375432 -9.62275e-22 -5.50173e-06 -8.59553e-22 8.64947e-08)
(-0.000114216 -0.000366657 8.13904e-21 0.000114059 1.65237e-21 1.57248e-07)
(-0.000218927 -0.000313431 -1.36259e-21 0.000219196 -1.19356e-22 -2.69424e-07)
(-0.000291605 -0.000230151 -1.90108e-20 0.000292523 -4.15902e-21 -9.17118e-07)
(-0.000326755 -0.00013558 1.7996e-20 0.000328492 4.20169e-21 -1.7375e-06)
(-0.000328739 -4.58266e-05 1.05964e-21 0.000331342 -6.32422e-22 -2.60272e-06)
(-0.000306958 2.94238e-05 -8.21365e-22 0.000310468 -5.71692e-22 -3.51036e-06)
(-0.000271128 8.6803e-05 -8.79582e-22 0.000275611 -9.52056e-23 -4.48345e-06)
(-0.000228982 0.00012671 -5.52091e-21 0.000234518 -4.32983e-22 -5.53619e-06)
(-0.000185806 0.000151467 1.71215e-21 0.000192705 -9.17418e-22 -6.89927e-06)
(-0.000145045 0.000163993 -6.28962e-21 0.000153676 7.24538e-22 -8.63142e-06)
(-0.000108845 0.000167615 5.11447e-21 0.000119297 1.32481e-22 -1.04518e-05)
(-7.79231e-05 0.000165822 -1.60729e-21 8.96712e-05 3.74916e-22 -1.17481e-05)
(-5.12856e-05 0.000161262 8.84248e-22 6.32616e-05 1.12885e-22 -1.19759e-05)
(-2.70941e-05 0.000154637 -1.85501e-21 3.8462e-05 -2.24561e-22 -1.13679e-05)
(-4.2047e-06 0.000144801 -1.3589e-21 1.52716e-05 -2.87988e-22 -1.10669e-05)
(1.64478e-05 0.00013078 -4.57826e-22 -4.39037e-06 6.03767e-23 -1.20574e-05)
(3.25806e-05 0.000114 1.7486e-21 -1.84087e-05 -2.99793e-22 -1.41719e-05)
(4.2715e-05 9.77416e-05 -1.86588e-21 -2.66728e-05 2.04986e-22 -1.60422e-05)