/*--------------------------------*- C++ -*----------------------------------*\
| =========                 |                                                 |
| \\      /  F ield         | OpenFOAM: The Open Source CFD Toolbox           |
|  \\    /   O peration     | Version:  2312                                  |
|   \\  /    A nd           | Website:  www.openfoam.com                      |
|    \\/     M anipulation  |                                                 |
\*---------------------------------------------------------------------------*/
FoamFile
{
    version     2.0;
    format      ascii;
    arch        "LSB;label=32;scalar=64";
    class       volSymmTensorField;
    location    "50";
    object      turbulenceProperties:R;
}
// * * * * * * * * * * * * * * * * * * * * * * * * * * * * * * * * * * * * * //

dimensions      [0 2 -2 0 0 0 0];

internalField   nonuniform List<symmTensor> 
11040
(
(0.0580172 0.00190347 1.09923e-21 0.0438145 -5.35326e-21 0.050057)
(0.137853 0.00278001 9.6329e-21 0.0927758 1.77216e-21 0.117656)
(0.325749 -0.0125539 6.78938e-20 0.181673 8.38701e-20 0.263372)
(0.66004 -0.0758165 -6.43445e-20 0.319022 -1.90722e-20 0.507956)
(1.1716 -0.211073 -8.82599e-20 0.55711 -1.91012e-20 0.890789)
(1.92929 -0.437221 -8.69402e-20 0.970955 1.43265e-20 1.48557)
(2.86398 -0.747101 -3.4621e-19 1.54994 -5.47772e-19 2.2502)
(3.63874 -1.0495 -6.23109e-19 2.11245 -3.03735e-19 2.91982)
(4.04927 -1.26208 2.67815e-19 2.50775 2.79704e-20 3.31671)
(4.17996 -1.38625 -4.89173e-19 2.74542 -1.05643e-21 3.49239)
(4.1781 -1.45817 1.82734e-19 2.8948 3.15043e-19 3.55871)
(4.1274 -1.50335 -8.81306e-19 3.00221 1.60951e-19 3.58169)
(4.05617 -1.5327 -3.48753e-19 3.08626 -1.84216e-19 3.58456)
(3.96975 -1.5494 -1.56331e-19 3.15153 1.64025e-19 3.57145)
(3.86794 -1.55413 3.41439e-20 3.1982 -7.71004e-21 3.54166)
(3.74969 -1.54676 -3.48956e-19 3.22468 -2.01455e-19 3.49374)
(3.61385 -1.52682 5.653e-20 3.22841 1.49511e-20 3.42613)
(3.4602 -1.49412 1.75516e-19 3.20719 3.48064e-19 3.33784)
(3.29047 -1.44958 -9.15076e-20 3.16166 3.40077e-21 3.23002)
(3.10892 -1.39513 -3.48314e-20 3.09492 -4.56182e-20 3.10584)
(2.91758 -1.33202 -7.85404e-21 3.00926 2.86886e-20 2.96723)
(2.73331 -1.26618 1.29729e-19 2.91191 7.13807e-20 2.82553)
(2.57663 -1.20656 -1.01486e-19 2.81702 -4.72767e-20 2.69844)
(2.44531 -1.15511 3.34782e-20 2.73333 1.63959e-19 2.59009)
(2.32804 -1.10802 -1.34529e-19 2.65564 -1.27293e-19 2.49171)
(2.21439 -1.0608 -1.31398e-21 2.57363 -3.06111e-19 2.39281)
(2.09977 -1.01161 -6.07863e-20 2.48262 -1.22797e-19 2.28942)
(1.986 -0.961588 -2.52608e-19 2.38504 7.82118e-20 2.18406)
(1.87736 -0.913076 -9.65597e-20 2.28705 -6.98261e-20 2.08194)
(1.77815 -0.868385 1.08426e-19 2.19548 -1.87863e-19 1.98818)
(1.69046 -0.828713 7.98153e-20 2.11498 9.30172e-20 1.90534)
(1.61188 -0.792961 4.75531e-19 2.04413 -9.33684e-20 1.83081)
(1.53704 -0.75851 5.83377e-19 1.97676 1.57199e-19 1.75852)
(1.45793 -0.721383 6.98797e-20 1.90205 1.11102e-19 1.67927)
(1.36685 -0.677774 1.22954e-19 1.80854 -1.47098e-20 1.58425)
(1.25985 -0.625758 2.82877e-19 1.68871 4.89544e-20 1.46867)
(1.13638 -0.565174 -7.47468e-20 1.54001 3.21979e-20 1.33191)
(1.00163 -0.498692 4.99554e-20 1.36833 -1.20508e-20 1.1797)
(0.850023 -0.423705 -1.31675e-19 1.16751 1.10094e-19 1.00637)
(0.718262 -0.357764 -2.97893e-20 0.980958 1.274e-19 0.84909)
(0.471831 -0.235871 -5.70694e-21 0.657534 -1.39004e-20 0.569282)
(0.0210796 -0.000854552 -1.10793e-21 0.0167343 7.45854e-22 0.0189538)
(0.0217349 -0.00240966 -1.08283e-22 0.0203503 3.23188e-21 0.020379)
(0.0235068 -0.00262449 -1.56644e-20 0.024725 -1.37255e-20 0.02275)
(0.0227193 -0.00241989 -1.65825e-21 0.0247432 -2.48078e-21 0.0220238)
(0.0219753 -0.00255693 8.5638e-23 0.0239496 -5.89958e-22 0.0209702)
(0.0250895 -0.00380701 -8.24163e-21 0.0271093 -8.08345e-21 0.0232665)
(0.0381309 -0.0089362 -7.97211e-21 0.0405182 3.80124e-20 0.0335381)
(0.0623527 -0.0199216 9.56119e-20 0.0628953 1.01108e-19 0.0520206)
(0.0925883 -0.0332559 -7.04007e-21 0.0866301 -1.84307e-20 0.0757325)
(0.124842 -0.04646 6.0983e-20 0.1092 2.34264e-20 0.102372)
(0.156527 -0.0589282 -9.34534e-20 0.130566 -1.81338e-19 0.129881)
(0.185722 -0.0704515 6.34751e-19 0.15091 7.12723e-20 0.156524)
(0.210995 -0.0809359 -6.24527e-21 0.170282 1.75277e-19 0.180988)
(0.231837 -0.0904009 4.95623e-19 0.188811 3.59354e-20 0.202654)
(0.248667 -0.0989874 -2.62344e-19 0.20683 -5.0361e-20 0.221627)
(0.262509 -0.106874 8.42808e-20 0.224586 2.06659e-19 0.238523)
(0.274225 -0.114108 1.60546e-19 0.241836 7.0631e-20 0.253896)
(0.28429 -0.120673 1.70053e-19 0.25818 -1.92923e-19 0.268053)
(0.292614 -0.126506 1.46104e-21 0.273434 -9.60446e-21 0.280888)
(0.298982 -0.131557 -1.51398e-20 0.287772 2.95358e-20 0.292126)
(0.303978 -0.136115 -5.18904e-20 0.302162 1.08255e-20 0.302303)
(0.306448 -0.139371 -1.01303e-19 0.314276 -7.94618e-20 0.309742)
(0.303851 -0.139978 2.04158e-19 0.320533 1.24459e-19 0.311395)
(0.29749 -0.138594 3.21572e-20 0.32234 -1.19885e-19 0.308755)
(0.290858 -0.136691 4.31022e-20 0.322045 7.74586e-20 0.305175)
(0.285953 -0.135193 -9.50528e-20 0.320997 3.33784e-19 0.302716)
(0.282895 -0.134326 -4.40023e-20 0.320171 1.77305e-19 0.30183)
(0.280094 -0.133516 3.95821e-19 0.319235 -2.69294e-20 0.301127)
(0.276169 -0.132264 -5.59256e-22 0.318176 5.49738e-20 0.299345)
(0.270256 -0.130192 -2.46396e-19 0.316682 1.28923e-19 0.295548)
(0.262331 -0.127196 -3.56403e-19 0.314468 -6.91517e-20 0.289547)
(0.254159 -0.123951 -6.59704e-19 0.312409 -1.11361e-19 0.282966)
(0.247235 -0.121058 -5.30122e-19 0.310513 -2.4122e-19 0.277153)
(0.24349 -0.119479 -2.67676e-19 0.309758 -6.44496e-20 0.27415)
(0.24405 -0.119845 1.55283e-19 0.310788 -2.11057e-20 0.275275)
(0.249196 -0.122329 -5.2035e-19 0.314194 -1.36226e-19 0.281061)
(0.258506 -0.126748 4.02833e-19 0.320975 -8.6962e-20 0.291494)
(0.271005 -0.132534 -2.9105e-19 0.33066 5.61432e-20 0.305066)
(0.28385 -0.138844 3.53833e-20 0.344249 -1.36981e-19 0.320915)
(0.302168 -0.146447 1.31284e-19 0.357592 -2.49406e-19 0.335139)
(0.32427 -0.159241 -3.03798e-19 0.393989 1.27495e-19 0.373367)
(0.0155845 -0.000584867 3.02761e-22 0.0122052 8.17448e-22 0.0138956)
(0.0121789 -0.00136926 -5.29085e-21 0.0109769 -3.13868e-21 0.011633)
(0.00697544 -0.000844738 8.4246e-21 0.00755995 4.00826e-21 0.00758831)
(0.00514899 -6.46339e-05 1.04878e-20 0.0060742 6.8241e-21 0.00619535)
(0.00611443 0.000418366 -3.11356e-22 0.00673235 -2.55861e-22 0.0071087)
(0.00666948 0.000610953 3.43465e-21 0.00693378 2.84015e-21 0.00747018)
(0.00649841 0.00064878 6.94329e-21 0.00654212 2.29828e-21 0.00712303)
(0.00595295 0.000626856 6.99232e-21 0.00587701 -5.57525e-22 0.00644664)
(0.00532057 0.000599481 -5.7455e-21 0.00516676 -1.59146e-21 0.00572544)
(0.00477874 0.000598633 3.956e-22 0.00453435 -1.96194e-21 0.00513235)
(0.00425693 0.000595426 -7.50954e-21 0.00386066 3.04955e-21 0.00456869)
(0.00373161 0.000510937 -2.41423e-20 0.00302523 -1.91034e-20 0.00398026)
(0.00354749 1.28622e-05 3.78718e-20 0.00224841 5.06681e-21 0.00360695)
(0.00624276 -0.00146146 -6.37209e-20 0.00403057 -2.50045e-20 0.0058739)
(0.0129708 -0.00434078 6.08081e-20 0.00964884 4.4469e-20 0.0119426)
(0.0231572 -0.00875742 2.97465e-20 0.0187606 -1.90987e-20 0.0213506)
(0.0365727 -0.0146913 -1.91516e-20 0.0313892 -5.16784e-20 0.0340032)
(0.0528093 -0.0219905 -2.63899e-20 0.0473239 -4.5472e-20 0.0496537)
(0.0711642 -0.0303736 -8.98094e-22 0.0659533 -1.77762e-21 0.067804)
(0.0907244 -0.0394733 7.00292e-21 0.0864814 4.09355e-21 0.0877167)
(0.110775 -0.0490296 8.4722e-20 0.108486 1.05623e-20 0.108829)
(0.130039 -0.0585048 7.75014e-20 0.131131 1.12143e-20 0.129846)
(0.146959 -0.0671314 -1.89972e-20 0.152965 -7.47669e-20 0.148947)
(0.160898 -0.0744348 9.53102e-21 0.172354 -3.53857e-20 0.165276)
(0.172391 -0.0804726 -1.24654e-19 0.188522 -4.41455e-20 0.179026)
(0.18209 -0.0855022 3.17429e-19 0.201608 -9.83054e-20 0.1907)
(0.190031 -0.0896166 2.00571e-19 0.212043 2.06705e-20 0.200458)
(0.196112 -0.0928782 -3.82793e-19 0.220612 -1.01944e-19 0.208373)
(0.20002 -0.0952281 -7.48864e-20 0.227855 5.46141e-20 0.214238)
(0.201763 -0.0966729 7.77376e-20 0.2341 1.16908e-19 0.218052)
(0.201853 -0.09736 3.89193e-19 0.239468 -6.18217e-21 0.220197)
(0.201101 -0.0975433 -1.78157e-19 0.243789 2.44821e-19 0.221247)
(0.20067 -0.0976959 4.80191e-19 0.247136 -3.69532e-20 0.222153)
(0.201303 -0.0981612 5.95441e-19 0.249442 -4.26792e-20 0.223525)
(0.203586 -0.0992368 -1.44125e-19 0.251144 -3.77113e-20 0.225984)
(0.207639 -0.100996 -3.98912e-19 0.252861 1.28123e-19 0.229807)
(0.213059 -0.103323 -5.45462e-19 0.255466 5.14366e-20 0.234983)
(0.21942 -0.105951 5.81264e-19 0.258714 -9.27053e-20 0.240623)
(0.226557 -0.109449 1.02005e-19 0.266665 2.29895e-21 0.24905)
(0.236513 -0.112622 1.76237e-19 0.269231 -1.59295e-20 0.253229)
(0.25916 -0.126772 2.91626e-19 0.314945 -1.80086e-19 0.292245)
(0.010224 -0.000329495 -2.3255e-24 0.00798255 -2.98864e-22 0.00911742)
(0.0092576 -0.000956256 1.58432e-21 0.00811521 3.07935e-22 0.00868064)
(0.00774299 -0.00099883 -6.0666e-21 0.00800436 -2.62756e-21 0.00781751)
(0.00669766 -0.000731136 -9.03601e-21 0.00781271 -5.93096e-21 0.00712611)
(0.00594129 -0.000445392 9.09794e-22 0.00731604 7.13557e-22 0.0064159)
(0.00524455 -0.000257982 5.6156e-21 0.00654636 1.91514e-21 0.00562362)
(0.00457703 -0.000159941 -1.54964e-21 0.00570234 -2.03362e-21 0.00484579)
(0.00395329 -0.000110213 -2.22515e-21 0.00490027 -2.21669e-21 0.00413911)
(0.00336851 -8.14214e-05 2.17588e-21 0.00415647 1.67077e-21 0.0034972)
(0.00281942 -6.26023e-05 -2.67129e-21 0.003466 -2.97757e-22 0.00290749)
(0.0023149 -5.11187e-05 6.48206e-21 0.00283586 2.64036e-21 0.00237237)
(0.00184557 -4.42936e-05 -1.65411e-21 0.00225225 1.36713e-21 0.00187954)
(0.00140102 -3.96512e-05 -2.78851e-22 0.00170102 -1.39041e-21 0.00141774)
(0.00099564 -3.71686e-05 5.66982e-21 0.00120116 1.97338e-21 0.00100076)
(0.000666981 -4.06627e-05 2.53357e-21 0.000794092 -1.50801e-21 0.000663575)
(0.000497469 -5.85003e-05 -2.3283e-21 0.000558526 -1.13648e-21 0.000484059)
(0.000656686 -0.00011086 -4.93865e-21 0.000650471 3.93309e-22 0.000624147)
(0.00122771 -0.000248706 -2.87981e-21 0.00112516 -3.12202e-22 0.00115324)
(0.00235584 -0.00058864 5.72927e-22 0.00207288 5.25875e-22 0.00219591)
(0.00436128 -0.00132296 -7.95735e-22 0.00373062 -1.27099e-21 0.00405969)
(0.00771596 -0.00269933 -6.36137e-21 0.00651133 -3.5065e-21 0.007247)
(0.0125237 -0.00481168 -2.38746e-20 0.010755 -7.48232e-21 0.0119749)
(0.0182681 -0.0074876 -1.01276e-20 0.0163877 -5.48105e-21 0.0178286)
(0.0247716 -0.0106279 -2.59603e-20 0.0233572 8.23199e-21 0.0246296)
(0.0321627 -0.0142261 -5.63379e-20 0.0316695 4.08697e-20 0.032416)
(0.040498 -0.0182592 -2.52764e-19 0.0411896 -1.69672e-20 0.0411836)
(0.0495478 -0.0226102 3.72247e-20 0.0515189 -3.32978e-20 0.0507387)
(0.0588849 -0.0271062 5.12422e-20 0.0622086 7.55562e-20 0.0607391)
(0.0680294 -0.0315626 1.80206e-19 0.0729012 8.74059e-22 0.0707903)
(0.076671 -0.0358647 1.52554e-19 0.0834832 -4.88491e-20 0.080622)
(0.0848202 -0.0400125 -2.71446e-19 0.0940419 -8.63121e-21 0.0902037)
(0.0928442 -0.0441369 2.36711e-19 0.104843 -7.25062e-21 0.0997708)
(0.101316 -0.048447 -7.5987e-19 0.116201 9.13378e-20 0.10971)
(0.110811 -0.0531611 -1.89281e-19 0.128365 -1.3058e-20 0.120432)
(0.121677 -0.0584149 -1.76091e-19 0.141439 5.6303e-20 0.132201)
(0.133862 -0.0641816 -7.54819e-20 0.155263 5.24969e-20 0.144973)
(0.146953 -0.0703188 -2.60763e-21 0.169643 1.94535e-20 0.158545)
(0.160688 -0.0766208 9.23927e-20 0.183901 -9.48829e-21 0.172306)
(0.175138 -0.0836138 -1.83057e-19 0.200744 3.54397e-20 0.18829)
(0.19104 -0.0898416 3.14526e-19 0.212129 5.19121e-21 0.200182)
(0.217215 -0.105487 -8.04339e-20 0.258278 5.83719e-20 0.241645)
(0.00684931 -0.000195509 8.92869e-22 0.0053319 3.64671e-22 0.00609609)
(0.00663927 -0.000611978 -1.32219e-21 0.00564547 -1.00838e-21 0.00614677)
(0.00575808 -0.000727555 6.0742e-21 0.00563316 1.66015e-21 0.0056921)
(0.00459239 -0.000564659 8.4313e-21 0.00512219 4.14174e-21 0.00488092)
(0.00339496 -0.000293905 -7.39672e-21 0.00416074 -3.08389e-21 0.00384042)
(0.0024855 -6.50535e-05 5.51103e-22 0.00318058 -2.84789e-22 0.00292919)
(0.00200032 7.71648e-05 -1.13583e-21 0.00251363 -5.33145e-22 0.00237734)
(0.00184402 0.000151706 -3.50343e-21 0.00217824 -7.10819e-22 0.00214661)
(0.00183524 0.000186535 1.04977e-21 0.0020283 1.40245e-22 0.00207416)
(0.00184787 0.00019982 1.39363e-21 0.00193816 4.18733e-22 0.00203499)
(0.0018309 0.000201141 2.17647e-21 0.001849 -9.54847e-22 0.0019755)
(0.00176777 0.000195144 -1.084e-22 0.00173835 2.54144e-22 0.00187709)
(0.00166297 0.00018505 -2.136e-22 0.00160665 2.35448e-22 0.00174357)
(0.00154142 0.000174189 -3.16441e-21 0.00147388 -2.498e-21 0.00159993)
(0.00141894 0.000163372 -1.74364e-21 0.00135038 -4.29061e-23 0.00146084)
(0.00129887 0.000151838 1.06787e-22 0.00123355 1.51828e-22 0.00132711)
(0.00116701 0.000137704 1.02063e-21 0.00110678 6.91824e-22 0.00118222)
(0.00101574 0.000120323 -1.21975e-21 0.000962108 6.31938e-23 0.00101799)
(0.000860901 0.000101504 2.04077e-22 0.000813314 -5.07669e-23 0.000851476)
(0.000726751 8.42332e-05 -3.29961e-22 0.000680775 5.53408e-23 0.000708029)
(0.000624513 7.03899e-05 7.79706e-22 0.000570873 2.51242e-22 0.000598233)
(0.000545447 5.86472e-05 -5.82064e-24 0.000474866 2.28389e-22 0.000512146)
(0.000477233 4.58473e-05 -1.41204e-21 0.00038518 2.99389e-22 0.000436594)
(0.000404704 2.24534e-05 2.72947e-21 0.000290723 5.80562e-22 0.00035471)
(0.000412593 -3.38102e-05 7.85126e-21 0.000282661 -8.90788e-22 0.000345645)
(0.000781591 -0.00016409 6.0696e-21 0.000655416 6.16559e-21 0.000682763)
(0.00153724 -0.000422455 -1.74943e-21 0.00144338 5.20075e-23 0.00138949)
(0.00263201 -0.000856102 2.31305e-20 0.00258666 -7.23653e-21 0.00243054)
(0.00405016 -0.00148575 -4.06269e-21 0.00403318 -1.05881e-20 0.0038225)
(0.00581319 -0.00231407 -4.12216e-20 0.00578496 2.08219e-22 0.00563009)
(0.00800226 -0.00335792 4.52966e-20 0.00795331 8.5944e-21 0.00796652)
(0.0107635 -0.00467772 -9.76896e-21 0.0107766 -7.35375e-21 0.0109786)
(0.0142979 -0.00637815 2.08267e-19 0.0145805 -1.02353e-21 0.0148289)
(0.0189124 -0.00860897 1.19047e-19 0.0197804 -1.63278e-20 0.0197633)
(0.0249946 -0.0115332 8.50007e-20 0.026811 -7.17152e-21 0.0261127)
(0.0329342 -0.0153006 8.87191e-20 0.0360197 -7.48011e-21 0.0342382)
(0.0430097 -0.0200356 -7.30342e-20 0.047604 9.81711e-21 0.044496)
(0.0557767 -0.0259427 1.61244e-20 0.0616964 -4.08426e-22 0.0573193)
(0.0719855 -0.0336505 -7.48028e-20 0.0800129 3.03975e-21 0.0745275)
(0.091838 -0.0422319 -2.76601e-19 0.0984569 5.3661e-20 0.0928475)
(0.12798 -0.0613436 2.29104e-19 0.146974 -2.40189e-20 0.139323)
(0.00457679 -0.000119593 -1.03498e-21 0.0035587 -4.97429e-22 0.00406998)
(0.00464752 -0.000384011 4.1319e-21 0.0038705 9.56462e-22 0.00426581)
(0.00434725 -0.000522016 -2.71131e-21 0.00407623 3.31647e-22 0.00420386)
(0.00387939 -0.000497781 -2.52566e-21 0.00412185 -7.87576e-22 0.00399159)
(0.00334409 -0.000362551 1.70412e-21 0.00392849 6.22026e-22 0.0036236)
(0.00286563 -0.00020535 -1.00686e-21 0.00357945 -4.37092e-22 0.00319812)
(0.00247773 -8.28883e-05 -1.72637e-21 0.00317663 -5.82277e-22 0.00278777)
(0.00216628 -6.08989e-06 -1.87444e-22 0.00278935 4.19065e-22 0.00242512)
(0.00191213 3.64176e-05 -7.13326e-23 0.0024479 1.12209e-22 0.00211747)
(0.0016992 5.7913e-05 -3.40043e-21 0.00215451 -1.17962e-21 0.00185779)
(0.0015143 6.7219e-05 -2.6033e-21 0.00189949 -1.48993e-22 0.00163405)
(0.00134793 6.90601e-05 1.64735e-21 0.00167243 -1.06293e-22 0.00143564)
(0.00119544 6.63111e-05 5.31918e-22 0.00146764 3.2403e-22 0.00125716)
(0.00105347 6.15947e-05 -4.0181e-21 0.00128053 4.90396e-23 0.00109511)
(0.000911978 5.76269e-05 3.45311e-21 0.00109743 6.98561e-22 0.000939087)
(0.000770509 5.53249e-05 -1.60962e-21 0.00091563 -1.67962e-22 0.000787044)
(0.000637873 5.32463e-05 -1.70138e-23 0.000743925 -6.30047e-22 0.00064527)
(0.000523128 4.92399e-05 -3.9114e-22 0.00059341 4.13353e-22 0.000520977)
(0.000429446 4.27974e-05 -3.61244e-22 0.000469364 -7.31619e-23 0.000417439)
(0.000357363 3.56181e-05 2.39163e-22 0.00037193 1.64918e-22 0.000336601)
(0.000304146 2.95736e-05 3.56017e-22 0.000295322 -2.06231e-22 0.000277489)
(0.000274216 2.4709e-05 -2.60317e-22 0.000245171 1.23959e-23 0.000245942)
(0.000271295 2.11977e-05 4.62472e-22 0.000229635 3.72518e-23 0.000245054)
(0.0002772 1.86143e-05 1.60698e-22 0.000229963 -1.90117e-22 0.000254143)
(0.000268072 1.53371e-05 -2.10305e-21 0.000220543 -2.17661e-22 0.000246727)
(0.000236993 1.04617e-05 1.501e-21 0.000192901 -2.81638e-22 0.000215068)
(0.000206725 4.71765e-06 1.60127e-22 0.000167188 -1.83592e-22 0.000182799)
(0.000201295 -5.51433e-07 -2.37815e-21 0.000164321 -6.58042e-23 0.000175193)
(0.000216217 -4.56017e-06 -1.73869e-21 0.00017713 1.60334e-22 0.000188586)
(0.000245335 -7.39822e-06 1.12285e-21 0.000198143 2.15483e-22 0.000216986)
(0.000302077 -1.012e-05 8.84964e-22 0.000239895 -2.66741e-22 0.000273349)
(0.000395438 -1.51082e-05 2.79552e-22 0.000309984 9.59321e-23 0.00036547)
(0.00052094 -2.75144e-05 -4.40147e-21 0.000401243 -3.16044e-22 0.000486539)
(0.000689774 -6.01256e-05 -6.65733e-21 0.000519993 2.44011e-22 0.000642538)
(0.000977012 -0.000145028 -2.96865e-21 0.000737028 -3.82725e-22 0.000897218)
(0.00157993 -0.000355952 7.61147e-21 0.00125284 -1.07434e-21 0.00142509)
(0.00278465 -0.000827346 1.66779e-21 0.00238282 6.912e-22 0.00249134)
(0.00497318 -0.00175364 1.52663e-20 0.00449643 -2.43262e-21 0.00444082)
(0.00883126 -0.00353322 5.5909e-20 0.00843309 -8.26717e-21 0.00816377)
(0.0145747 -0.00602248 5.50414e-21 0.0137748 -5.73226e-21 0.0134085)
(0.031119 -0.014202 -1.07141e-19 0.0323684 2.22405e-20 0.0320481)
(0.00309962 -7.76896e-05 -1.253e-22 0.00240923 -6.37135e-23 0.00275378)
(0.0032257 -0.000241799 5.21538e-23 0.00264783 3.78798e-22 0.00294386)
(0.00313925 -0.00035217 -1.53982e-21 0.0028389 -5.13644e-22 0.00298617)
(0.0029501 -0.000379639 -2.30902e-21 0.00298252 -1.23125e-21 0.00296445)
(0.00262828 -0.000320234 -1.20423e-21 0.00294478 -4.45951e-22 0.00278905)
(0.00224537 -0.000212309 3.59535e-21 0.00272004 1.38319e-21 0.00248949)
(0.00187411 -0.000102435 -1.04921e-21 0.00237993 -2.54391e-22 0.00213857)
(0.0015559 -1.64078e-05 9.71529e-22 0.00201197 3.57118e-22 0.00180123)
(0.00130768 4.14181e-05 4.13293e-21 0.00168025 1.11801e-21 0.00151754)
(0.00113003 7.66115e-05 -9.69808e-23 0.00141418 5.56133e-22 0.00130169)
(0.00101271 9.61549e-05 5.57265e-21 0.00121598 1.30007e-21 0.00114897)
(0.000938979 0.000105232 -4.53527e-21 0.00107275 -1.49435e-21 0.00104413)
(0.000890834 0.000107202 3.34418e-21 0.000967373 1.06778e-21 0.00096932)
(0.000856975 0.000104876 1.12484e-22 0.000888477 5.03935e-23 0.000913366)
(0.000833828 0.000100806 -1.59561e-21 0.000831791 -7.34123e-22 0.000872924)
(0.000820523 9.67866e-05 5.29017e-22 0.000794164 3.72803e-22 0.000846593)
(0.000811656 9.29552e-05 -2.23442e-21 0.000766513 9.70934e-23 0.000827179)
(0.00079302 8.79808e-05 9.94129e-22 0.000732649 2.48936e-22 0.000798388)
(0.000750618 8.06594e-05 -2.49561e-22 0.000679255 1.42441e-22 0.000745365)
(0.000686893 7.14322e-05 1.65446e-22 0.000609421 -4.81601e-22 0.000671292)
(0.000622026 6.19406e-05 -1.51867e-22 0.000541315 1.93679e-22 0.000597937)
(0.000572888 5.37154e-05 1.63105e-22 0.000489804 -6.15879e-24 0.000543809)
(0.000544876 4.80003e-05 -1.12217e-21 0.000460064 -1.7234e-22 0.000514861)
(0.000532388 4.45871e-05 4.79908e-22 0.000446612 -3.64276e-23 0.00050388)
(0.000518402 4.1425e-05 9.70325e-22 0.000432657 3.36627e-22 0.00049088)
(0.000482653 3.64248e-05 -6.11731e-22 0.000399389 -2.83631e-22 0.000453815)
(0.000425167 2.94264e-05 -1.53252e-21 0.000347374 -3.36327e-23 0.00039306)
(0.000367508 2.20029e-05 9.06285e-22 0.00029659 3.79443e-22 0.000331818)
(0.000330626 1.61332e-05 1.01141e-23 0.000265219 4.06468e-22 0.000292838)
(0.000316624 1.30725e-05 6.27292e-22 0.000253482 -1.23552e-22 0.000279319)
(0.000321266 1.27278e-05 -5.23778e-23 0.000257168 -1.64191e-22 0.000286977)
(0.000341615 1.37282e-05 1.05435e-21 0.000275301 -1.56744e-22 0.000311708)
(0.000362451 1.41302e-05 1.00127e-23 0.00029547 1.4581e-22 0.00033669)
(0.000361014 1.24015e-05 -4.53074e-22 0.000297098 2.41815e-22 0.00033798)
(0.000327661 8.18445e-06 -1.3551e-21 0.000270949 2.25315e-22 0.000305774)
(0.000277177 2.44126e-06 1.00251e-21 0.000230237 -1.64239e-22 0.000255516)
(0.000242758 -3.70592e-06 1.00211e-21 0.00020523 -1.57865e-22 0.000221241)
(0.000250978 -9.35104e-06 -7.98461e-22 0.000220011 1.08197e-22 0.000229163)
(0.000345763 -2.25389e-05 3.8863e-22 0.000311171 -2.63328e-23 0.000318818)
(0.000469488 -3.93295e-05 -1.72876e-23 0.000428206 -9.05152e-24 0.000434725)
(0.00213261 -0.000511294 -7.19318e-22 0.00191321 -5.8548e-22 0.00201328)
(0.00211409 -5.28592e-05 -2.39816e-23 0.0016435 7.47305e-23 0.00187697)
(0.00222924 -0.000155161 -7.72772e-22 0.00181363 -1.91461e-22 0.00202751)
(0.00221735 -0.000232524 8.06939e-22 0.00195427 -2.32392e-22 0.00208428)
(0.00218233 -0.000273688 3.28319e-21 0.00211983 7.9685e-22 0.00214916)
(0.00206181 -0.000263379 6.54348e-22 0.00220988 3.48453e-22 0.00213481)
(0.00187952 -0.000208954 4.52524e-22 0.00219148 2.76621e-22 0.00203391)
(0.00168257 -0.000134971 -5.44197e-21 0.00208206 -1.66055e-21 0.00187894)
(0.00149972 -6.41519e-05 -4.53121e-22 0.00191789 -2.17989e-22 0.00170301)
(0.001341 -8.07718e-06 -1.61912e-21 0.00173376 -5.86566e-22 0.00152894)
(0.00120615 3.10796e-05 3.10581e-21 0.00155268 9.12589e-22 0.0013683)
(0.00109087 5.58497e-05 -2.51244e-21 0.00138558 -1.18871e-21 0.00122444)
(0.000989629 6.98629e-05 -2.02659e-21 0.00123451 5.49829e-23 0.00109565)
(0.000898166 7.61617e-05 3.2877e-21 0.00109845 1.72167e-22 0.000979264)
(0.000815058 7.7183e-05 -3.50733e-21 0.000977331 -5.16577e-22 0.000874489)
(0.000740764 7.50953e-05 1.64712e-22 0.00087175 -6.39961e-23 0.000782348)
(0.000675335 7.19349e-05 7.98549e-22 0.000780245 2.81249e-22 0.000703035)
(0.000616582 6.89296e-05 2.4328e-21 0.000697746 4.29871e-22 0.000633453)
(0.000562036 6.57886e-05 9.94227e-23 0.000620013 9.92958e-23 0.000569418)
(0.000508158 6.1245e-05 5.87465e-22 0.000543778 -8.42445e-24 0.000506038)
(0.000452743 5.45319e-05 -2.75397e-21 0.000468328 -2.31657e-22 0.000440949)
(0.000398787 4.64282e-05 1.87142e-21 0.00039758 2.61282e-22 0.000378402)
(0.000351575 3.86881e-05 -4.2794e-22 0.00033694 -7.0325e-23 0.000325513)
(0.000315877 3.30109e-05 -5.93248e-22 0.000290945 1.3408e-22 0.000287962)
(0.000297538 3.00134e-05 -8.79303e-23 0.000263871 6.35984e-23 0.00027063)
(0.000298022 2.8399e-05 -2.60994e-22 0.000255887 -9.77875e-23 0.000272439)
(0.000301538 2.58386e-05 -1.30169e-22 0.000252063 1.32176e-22 0.000275415)
(0.000291981 2.10285e-05 -6.08421e-22 0.000238012 3.72084e-22 0.000262945)
(0.000273107 1.44775e-05 4.89562e-22 0.000218085 -1.48369e-22 0.000239815)
(0.000260574 7.95152e-06 1.70474e-21 0.000206702 -1.55107e-22 0.000223393)
(0.000257989 3.41271e-06 3.82098e-22 0.000205208 -2.20086e-22 0.000218798)
(0.000257772 1.98497e-06 -1.58683e-21 0.000203855 1.71434e-22 0.000219086)
(0.000264428 3.3957e-06 -7.34673e-22 0.000206085 -2.93175e-23 0.000228199)
(0.000290607 5.99549e-06 -8.18384e-24 0.000225083 3.2848e-23 0.000257301)
(0.000330054 7.45039e-06 1.51288e-21 0.000256463 -1.81697e-22 0.000298378)
(0.000360737 5.71711e-06 8.46014e-22 0.000280864 -3.99519e-24 0.000328328)
(0.000370822 1.60436e-07 -6.24906e-22 0.000289146 -1.25599e-24 0.0003356)
(0.000369546 -8.36899e-06 -1.2781e-21 0.000292049 1.58829e-22 0.000331443)
(0.00036631 -1.61212e-05 6.54396e-22 0.000300252 -8.25123e-23 0.000328272)
(0.00036267 -2.16926e-05 -3.82713e-22 0.000312991 5.37611e-23 0.000330842)
(0.0003023 -1.77118e-05 5.22896e-22 0.000274464 -5.76634e-23 0.000282374)
(0.00026082 -1.4042e-05 4.76814e-23 0.000247826 -1.00129e-23 0.000253029)
(0.00145081 -3.73937e-05 -1.16489e-22 0.00112854 6.73909e-23 0.00128748)
(0.00154199 -0.000102056 -6.085e-22 0.00124799 -3.05288e-22 0.00139986)
(0.001545 -0.000152739 2.50247e-21 0.00133766 4.46512e-22 0.00144063)
(0.00156312 -0.000188685 -5.30238e-22 0.00147073 2.07017e-22 0.00151611)
(0.00153513 -0.000198246 8.03267e-22 0.00157941 1.63671e-22 0.00155743)
(0.00145404 -0.000177358 -7.01889e-22 0.00162731 -1.9367e-22 0.00154121)
(0.00134115 -0.000134291 1.91532e-21 0.00160676 5.50267e-22 0.0014747)
(0.00121655 -8.25674e-05 2.13268e-21 0.00152697 5.33856e-22 0.00137294)
(0.00109362 -3.35352e-05 1.53574e-22 0.0014071 2.93633e-22 0.00125236)
(0.000980062 6.52175e-06 2.85516e-21 0.00126799 6.11351e-22 0.00112732)
(0.000879898 3.58886e-05 5.05773e-22 0.001127 1.38947e-22 0.00100834)
(0.000793981 5.5519e-05 -1.96286e-21 0.000994534 -3.13429e-22 0.000900906)
(0.000721522 6.72116e-05 -5.50042e-22 0.000875687 -4.14408e-22 0.000806975)
(0.000661222 7.28387e-05 1.8906e-21 0.000772524 5.56012e-22 0.000726649)
(0.000612194 7.41462e-05 -4.4793e-21 0.000686019 -8.63106e-22 0.00065994)
(0.000575914 7.29811e-05 1.7133e-21 0.000618318 4.00719e-22 0.000608941)
(0.000554262 7.0875e-05 -1.2802e-21 0.000570595 -4.43681e-22 0.00057546)
(0.000544953 6.84053e-05 2.28213e-21 0.000538926 2.51689e-22 0.000556298)
(0.000539369 6.49911e-05 -7.85772e-23 0.000513335 -2.41532e-22 0.00054157)
(0.000526676 5.97415e-05 -7.07711e-22 0.000483277 2.80421e-22 0.000519765)
(0.000500499 5.25084e-05 1.04539e-21 0.000443995 -1.83284e-22 0.000485083)
(0.000466401 4.4595e-05 6.9366e-23 0.000401845 8.44322e-23 0.000444453)
(0.000436041 3.79948e-05 -2.36137e-22 0.000367764 1.5057e-23 0.00041067)
(0.000418273 3.39593e-05 9.89068e-22 0.00034861 -1.28315e-23 0.000392475)
(0.000415747 3.21178e-05 2.71473e-22 0.000344519 1.09151e-22 0.000390783)
(0.000418972 3.06217e-05 8.19575e-22 0.00034515 -7.26204e-23 0.000394031)
(0.00041315 2.76726e-05 1.39912e-21 0.000336798 -8.71847e-23 0.000386314)
(0.000391666 2.27166e-05 -6.43649e-22 0.000314452 6.14765e-23 0.000361282)
(0.000361079 1.66214e-05 -4.73011e-22 0.000285333 -1.05917e-22 0.000326707)
(0.000333381 1.1026e-05 -1.42099e-21 0.000260756 1.50209e-22 0.00029607)
(0.000314998 7.43065e-06 6.42667e-22 0.000245485 1.61911e-23 0.000276842)
(0.00030742 6.417e-06 -4.49733e-22 0.000239129 1.08259e-22 0.00027059)
(0.000314918 7.30267e-06 5.47485e-22 0.000244747 -4.54348e-23 0.000280665)
(0.00034 8.38559e-06 -1.46257e-21 0.000264741 8.4305e-23 0.000307984)
(0.00037296 7.58163e-06 1.97894e-22 0.000290639 -3.80269e-23 0.000341366)
(0.000399839 3.33497e-06 -3.99117e-22 0.000310594 6.86365e-23 0.00036606)
(0.000417121 -5.08098e-06 2.197e-21 0.000323464 -2.37278e-22 0.000379071)
(0.000431825 -1.6555e-05 -1.491e-21 0.000338689 1.81251e-22 0.000388902)
(0.000454309 -2.97992e-05 1.25515e-22 0.000368899 -1.03906e-23 0.000409799)
(0.000466555 -4.01704e-05 -7.77654e-22 0.000396841 1.12654e-22 0.000424787)
(0.000426537 -3.99258e-05 6.34872e-22 0.00038616 -5.30114e-23 0.000402016)
(0.000998452 -2.72198e-05 -4.57859e-22 0.000777438 -1.39931e-22 0.000885847)
(0.00106765 -6.87868e-05 1.84503e-21 0.000861911 2.36652e-22 0.000968574)
(0.00106932 -0.000101241 -4.84782e-22 0.000915619 2.16587e-22 0.00099203)
(0.00109847 -0.000127703 -3.18766e-21 0.00101065 -5.58218e-22 0.001054)
(0.00111007 -0.000141901 -3.63708e-22 0.00110594 -3.24882e-22 0.00110805)
(0.00109007 -0.000138593 3.07649e-21 0.00117635 6.24583e-22 0.0011333)
(0.00104574 -0.000118485 -5.15094e-22 0.00121136 -4.51198e-23 0.0011284)
(0.000987154 -8.70117e-05 -7.18729e-21 0.00120799 -1.57238e-21 0.00109705)
(0.000922906 -5.1263e-05 6.80433e-21 0.00117066 1.58867e-21 0.0010458)
(0.000859159 -1.73287e-05 4.00687e-22 0.00110876 -2.39142e-22 0.000982483)
(0.000799308 1.11272e-05 -3.10615e-22 0.0010328 -2.16197e-22 0.000914062)
(0.000744223 3.28292e-05 -3.32661e-22 0.000951001 -3.6007e-23 0.000845068)
(0.000693349 4.79268e-05 -2.08822e-21 0.000868663 -1.63771e-22 0.000777865)
(0.00064584 5.72968e-05 6.47672e-22 0.000789022 -3.4704e-22 0.000713516)
(0.000600966 6.20429e-05 -2.37953e-21 0.00071398 2.74111e-22 0.000652575)
(0.000559066 6.34223e-05 1.93522e-21 0.000645391 5.01282e-23 0.000596296)
(0.000521408 6.2755e-05 -6.08276e-22 0.000584834 1.41886e-22 0.000546452)
(0.000488546 6.1043e-05 3.34716e-22 0.000531906 4.27307e-23 0.000503426)
(0.000459113 5.85504e-05 -7.02365e-22 0.000483934 -8.50256e-23 0.000465067)
(0.000429678 5.48416e-05 -5.14663e-22 0.000437055 -1.09071e-22 0.000427079)
(0.00039726 4.9546e-05 -1.73447e-22 0.000389366 2.28736e-23 0.000386461)
(0.000362947 4.32022e-05 6.62663e-22 0.000343624 -1.13612e-22 0.000345229)
(0.000330606 3.7053e-05 -7.07339e-22 0.000304302 7.77086e-23 0.000308331)
(0.000305029 3.23974e-05 -3.03753e-22 0.00027491 -5.8322e-23 0.000280947)
(0.000290091 2.96709e-05 1.11795e-21 0.000256828 -4.97345e-23 0.000266068)
(0.000285565 2.79908e-05 -9.17682e-22 0.000248012 -1.20629e-23 0.000261844)
(0.000285611 2.58726e-05 -9.09213e-22 0.00024251 -8.81294e-23 0.000261034)
(0.000282753 2.2269e-05 1.23734e-21 0.000234063 7.65334e-24 0.000255695)
(0.000274972 1.71523e-05 -1.75165e-22 0.000222113 1.05439e-23 0.000244364)
(0.000266293 1.14495e-05 1.11082e-21 0.000211435 -1.78434e-23 0.000232277)
(0.000259843 6.49864e-06 -6.16695e-22 0.000204801 1.5359e-23 0.000223819)
(0.000254518 3.34478e-06 8.40369e-22 0.000199822 -5.95253e-23 0.000218555)
(0.000251293 2.17037e-06 2.54562e-22 0.0001959 -5.47141e-23 0.000217201)
(0.000257847 2.14688e-06 -3.17627e-23 0.000199517 7.08099e-23 0.000226308)
(0.000279012 1.73298e-06 6.61895e-22 0.000215398 -6.37696e-23 0.000249277)
(0.000308709 -6.74055e-07 -2.25387e-22 0.000238561 2.53642e-23 0.000278909)
(0.000338518 -6.23245e-06 -6.20496e-22 0.000262499 2.89607e-23 0.000306571)
(0.000365682 -1.49417e-05 8.8155e-22 0.00028696 -8.0987e-23 0.000330304)
(0.000396157 -2.62775e-05 1.21756e-22 0.000319949 -1.72449e-23 0.000358216)
(0.000424633 -3.78308e-05 1.15495e-21 0.00035793 -1.23954e-22 0.000386577)
(0.000437799 -4.73333e-05 -8.31857e-22 0.000390228 9.56098e-23 0.000407406)
(0.000688002 -2.02499e-05 -3.93618e-22 0.00053648 1.42175e-23 0.00061044)
(0.000739598 -4.73503e-05 -1.62696e-21 0.000596757 -1.66071e-22 0.000671092)
(0.00073773 -6.80152e-05 -6.55788e-23 0.000627828 -1.27949e-22 0.0006825)
(0.000762662 -8.60159e-05 -2.26413e-22 0.000691431 -1.29676e-22 0.000726674)