/*--------------------------------*- C++ -*----------------------------------*\
| =========                 |                                                 |
| \\      /  F ield         | OpenFOAM: The Open Source CFD Toolbox           |
|  \\    /   O peration     | Version:  2312                                  |
|   \\  /    A nd           | Website:  www.openfoam.com                      |
|    \\/     M anipulation  |                                                 |
\*---------------------------------------------------------------------------*/
FoamFile
{
    version     2.0;
    format      ascii;
    arch        "LSB;label=32;scalar=64";
    class       volScalarField;
    location    "50";
    object      turbulenceProperties:k;
}
// * * * * * * * * * * * * * * * * * * * * * * * * * * * * * * * * * * * * * //

dimensions      [0 2 -2 0 0 0 0];

internalField   nonuniform List<scalar> 
11040
(
0.0759443
0.174142
0.385397
0.743509
1.30975
2.19291
3.33206
4.33551
4.93687
5.20888
5.3158
5.35565
5.3635
5.34636
5.3039
5.23406
5.13419
5.00261
4.84108
4.65484
4.44703
4.23538
4.04605
3.88436
3.73769
3.59041
3.43591
3.27755
3.12317
2.9809
2.85539
2.74341
2.63616
2.51963
2.37981
2.20862
2.00415
1.77483
1.51195
1.27416
0.849324
0.0283839
0.0312321
0.0354909
0.0347432
0.0334475
0.0377326
0.0560936
0.0886343
0.127475
0.168207
0.208487
0.246578
0.281132
0.311651
0.338562
0.362809
0.384979
0.405262
0.423468
0.439439
0.454221
0.465233
0.467889
0.464292
0.459039
0.454833
0.452448
0.450228
0.446845
0.441243
0.433173
0.424767
0.417451
0.413699
0.415057
0.422226
0.435487
0.453366
0.474507
0.497449
0.545813
0.0208426
0.0173944
0.0110619
0.00870927
0.00997774
0.0105367
0.0100818
0.0091383
0.00810638
0.00722272
0.00634314
0.00536855
0.00470143
0.00807362
0.0172811
0.0316342
0.0509826
0.0748934
0.102461
0.132461
0.164045
0.195508
0.224435
0.249264
0.26997
0.287199
0.301266
0.312549
0.321056
0.326958
0.330759
0.333069
0.33498
0.337136
0.340357
0.345153
0.351754
0.359378
0.371136
0.379487
0.433175
0.013662
0.0130267
0.0117824
0.0108182
0.00983662
0.00870726
0.00756258
0.00649634
0.00551109
0.00459645
0.00376157
0.00298868
0.00225989
0.00159878
0.00106232
0.000770027
0.000965652
0.00175306
0.00331231
0.00607579
0.0107371
0.0176268
0.0262422
0.0363792
0.0481241
0.0614356
0.0759027
0.0909163
0.10586
0.120388
0.134533
0.148729
0.163613
0.179804
0.197659
0.217049
0.23757
0.258448
0.282086
0.301676
0.358569
0.00913865
0.00921575
0.00854167
0.00729775
0.00569806
0.00429764
0.00344565
0.00308443
0.00296885
0.00291051
0.0028277
0.00269161
0.00250659
0.00230761
0.00211508
0.00192977
0.00172801
0.00149792
0.00126285
0.00105778
0.00089681
0.000766229
0.000649503
0.000525068
0.00052045
0.00105988
0.00218505
0.0038246
0.00595292
0.00861412
0.011961
0.0162594
0.0218537
0.0292281
0.0389591
0.0515961
0.0675548
0.0873962
0.113263
0.141571
0.207138
0.00610273
0.00639191
0.00631366
0.00599641
0.00544809
0.0048216
0.00422106
0.00369037
0.00323875
0.00285575
0.00252392
0.002228
0.00196012
0.00171456
0.00147425
0.00123659
0.00101353
0.000818757
0.000658125
0.000532947
0.000438479
0.000382665
0.000372992
0.000380653
0.000367671
0.000322481
0.000278356
0.000270404
0.000290966
0.000330232
0.00040766
0.000535446
0.000704362
0.000926152
0.00130563
0.00212893
0.00382941
0.00695521
0.0127141
0.020879
0.0477677
0.00413131
0.00440869
0.00448216
0.00444854
0.00418106
0.00372745
0.0031963
0.00268455
0.00225274
0.00192295
0.00168883
0.00152793
0.00141376
0.00132941
0.00126927
0.00123064
0.00120267
0.00116203
0.00108762
0.000983802
0.000880639
0.000803251
0.000759901
0.00074144
0.000720969
0.000667928
0.0005828
0.000497958
0.000444341
0.000424713
0.000432705
0.000464312
0.000497305
0.000498046
0.000452192
0.000381465
0.000334614
0.000350075
0.000487876
0.000666209
0.00302955
0.00281728
0.00303519
0.00312795
0.00322566
0.00320325
0.00305246
0.00282178
0.00256031
0.00230185
0.00206357
0.00185044
0.0016599
0.00148794
0.00133344
0.00119743
0.00107931
0.00097389
0.000875733
0.000778987
0.00068101
0.000587384
0.000507014
0.000447392
0.00041602
0.000413174
0.000414508
0.000396469
0.000365503
0.000345335
0.000340997
0.000340357
0.000349356
0.000386496
0.000442447
0.000484965
0.000497784
0.000496519
0.000497418
0.000503251
0.000429569
0.000380838
0.00193342
0.00209493
0.00216164
0.00227498
0.00233599
0.00231128
0.00221131
0.00205823
0.00187654
0.00168769
0.00150762
0.00134471
0.00120209
0.0010802
0.000979076
0.000901586
0.000850158
0.000820088
0.000797137
0.000764859
0.000714789
0.00065635
0.000607237
0.000579679
0.000575525
0.000579077
0.000568131
0.0005337
0.000486559
0.000445103
0.000418663
0.000408569
0.000420165
0.000456363
0.000502482
0.000538247
0.000559829
0.000579708
0.000616503
0.000644091
0.000607357
0.00133087
0.00144907
0.00148848
0.00158156
0.00166203
0.00169986
0.00169275
0.0016461
0.00156968
0.0014752
0.00137308
0.00127015
0.00116994
0.00107419
0.00098376
0.000900377
0.000826347
0.000761939
0.000704057
0.000646906
0.000586544
0.0005259
0.000471619
0.000430443
0.000406493
0.000397711
0.000394578
0.000386256
0.000370724
0.000355003
0.000344232
0.000336448
0.000332197
0.000341836
0.000371844
0.00041309
0.000453794
0.000491473
0.000537161
0.00058457
0.000617717
0.000917461
0.00100372
0.00102403
0.00109038
0.00116001
0.00121134
0.00123944
0.00124209
0.0012199
0.00117683
0.00111894
0.00105195
0.000980592
0.000908639
0.000838712
0.000773202
0.000715112
0.000667397
0.000630643
0.00060082
0.000570387
0.000535635
0.000498686
0.000465776
0.000444441
0.000437685
0.000441175
0.000445416
0.000442671
0.000431734
0.000416527
0.000400831
0.000386879
0.000378608
0.000380993
0.000394192
0.000411964
0.000427837
0.000444449
0.000461023
0.000476984
0.000632437
0.00069516
0.000704238
0.000748675
0.000800837
0.000846875
0.000883718
0.000908364
0.000918416
0.0009137
0.00089615
0.000868424
0.000833316
0.000793424
0.000750813
0.000707166
0.000664156
0.00062351
0.000586184
0.000551313
0.000516905
0.000481853
0.000445892
0.000411243
0.000382451
0.000362947
0.00035307
0.000349494
0.000347057
0.000342257
0.000334761
0.000325525
0.00031472
0.000303042
0.000293764
0.000291637
0.000298301
0.000311419
0.000328632
0.000346841
0.000364527
0.000435583
0.000480822
0.000484063
0.000512943
0.000549333
0.000584429
0.000616991
0.000644977
0.000665776
0.000677686
0.000680377
0.000674375
0.00066076
0.000640979
0.000616561
0.000588955
0.000559599
0.000530019
0.00050174
0.000475735
0.000451759
0.000429361
0.000407502
0.000385885
0.000366398
0.000351422
0.000342285
0.000338404
0.000337333
0.000336174
0.000333015
0.000327363
0.000319301
0.000309138
0.000298066
0.000288646
0.000283063
0.000281955
0.000284005
0.00028675
0.00029172
0.000299523
0.000331762
0.000332354
0.000350897
0.000375403
0.000400216
0.00042513
0.000449199
0.000470645
0.000487897
0.000500035
0.000506651
0.000507754
0.000503729
0.000495196
0.00048291
0.000467675
0.000450373
0.000431964
0.000413261
0.000394796
0.000377037
0.000359614
0.000342053
0.000325109
0.00031
0.000297743
0.000288683
0.000282328
0.000277507
0.000273007
0.000268
0.000262008
0.000254727
0.000246167
0.000237282
0.000229565
0.00022485
0.000223395
0.000223923
0.000227736
0.000205471
0.000228081
0.000227732
0.000239612
0.000255814
0.000272667
0.000290356
0.000308557
0.000326248
0.000342354
0.000356045
0.000366713
0.000373951
0.000377591
0.000377696
0.000374517
0.00036846
0.000360035
0.000349842
0.0003385
0.000326549
0.000314802
0.000303515
0.000292332
0.00028143
0.000271242
0.000262316
0.000255106
0.000249787
0.0002461
0.000243452
0.000241072
0.000238183
0.000234091
0.000228357
0.000221108
0.000212898
0.000204778
0.000197651
0.000191477
0.000187852
0.000140562
0.000156117
0.000155638
0.000163259
0.000173837
0.000185022
0.000197078
0.000209951
0.000223108
0.000235929
0.000247878
0.000258487
0.000267348
0.000274154
0.000278724
0.000281007
0.000281077
0.000279092
0.000275298
0.00027
0.000263547
0.000256573
0.000249353
0.00024178
0.000233972
0.00022612
0.000218498
0.00021142
0.00020512
0.000199662
0.00019488
0.000190448
0.00018595
0.000180941
0.000175089
0.00016828
0.000160732
0.000153003
0.000145789
0.000139773
0.000135457
9.62866e-05
0.000106746
0.000106485
0.000111416
0.000118256
0.000125576
0.000133603
0.000142354
0.000151554
0.00016087
0.000169997
0.000178642
0.00018651
0.000193329
0.000198874
0.000202989
0.000205591
0.000206664
0.000206259
0.000204485
0.000201464
0.000197607
0.000193238
0.000188428
0.000183343
0.000178131
0.00017295
0.00016797
0.00016333
0.000159096
0.000155236
0.000151608
0.000148014
0.000144178
0.000139854
0.000134919
0.000129416
0.00012358
0.000117673
0.000112333
0.000108006
6.70804e-05
7.40437e-05
7.40214e-05
7.73293e-05
8.18169e-05
8.66654e-05
9.20483e-05
9.79818e-05
0.000104313
0.000110865
0.000117472
0.000123967
0.000130172
0.000135903
0.000140985
0.000145274
0.000148657
0.00015106
0.00015245
0.000152841
0.00015225
0.000150881
0.000148943
0.000146515
0.000143733
0.000140698
0.000137488
0.000134181
0.000130841
0.000127507
0.000124183
0.000120823
0.000117366
0.000113733
0.000109841
0.000105653
0.000101207
9.67135e-05
9.22733e-05
8.81356e-05
8.48906e-05
4.80695e-05
5.27964e-05
5.28814e-05
5.5181e-05
5.82307e-05
6.15461e-05
6.52581e-05
6.93714e-05
7.37947e-05
7.84256e-05
8.31712e-05
8.79348e-05
9.26087e-05
9.70732e-05
0.00010121
0.000104907
0.000108067
0.000110612
0.000112486
0.000113665
0.000114119
0.000113938
0.00011324
0.000112081
0.00011056
0.000108749
0.000106706
0.000104483
0.000102136
9.97119e-05
9.72517e-05
9.47782e-05
9.22968e-05
8.97988e-05
8.727e-05
8.46954e-05
8.20255e-05
7.93054e-05
7.66003e-05
7.37972e-05
7.15794e-05
3.54178e-05
3.86769e-05
3.88174e-05
4.04591e-05
4.25903e-05
4.49212e-05
4.75451e-05
5.04596e-05
5.3603e-05
5.69128e-05
6.03313e-05
6.38007e-05
6.72539e-05
7.06158e-05
7.38075e-05
7.67509e-05
7.93735e-05
8.16101e-05
8.3406e-05
8.47243e-05
8.55234e-05
8.58367e-05
8.57139e-05
8.51814e-05
8.4308e-05
8.31469e-05
8.17459e-05
8.0149e-05
7.8401e-05
7.65405e-05
7.46011e-05
7.26048e-05
7.05627e-05
6.84702e-05
6.63284e-05
6.41403e-05
6.18948e-05
5.95891e-05
5.73031e-05
5.49591e-05
5.29073e-05
2.66651e-05
2.89433e-05
2.91003e-05
3.02908e-05
3.18091e-05
3.34824e-05
3.53722e-05
3.74754e-05
3.9745e-05
4.2143e-05
4.4628e-05
4.71655e-05
4.97088e-05
5.22115e-05
5.46178e-05
5.68764e-05
5.89321e-05
6.07375e-05
6.22448e-05
6.34201e-05
6.42199e-05
6.46546e-05
6.47496e-05
6.45187e-05
6.40112e-05
6.32692e-05
6.23312e-05
6.12326e-05
6.00079e-05
5.86838e-05
5.72865e-05
5.58319e-05
5.43371e-05
5.28034e-05
5.124e-05
4.96534e-05
4.80504e-05
4.64243e-05
4.48082e-05
4.31403e-05
4.17001e-05
2.04319e-05
2.20446e-05
2.22026e-05
2.30768e-05
2.41787e-05
2.54002e-05
2.6785e-05
2.8326e-05
2.99903e-05
3.17504e-05
3.35783e-05
3.54494e-05
3.73324e-05
3.91953e-05
4.10008e-05
4.27136e-05
4.42951e-05
4.57113e-05
4.69272e-05
4.7916e-05
4.86439e-05
4.91151e-05
4.93419e-05
4.93265e-05
4.90996e-05
4.86885e-05
4.8119e-05
4.74152e-05
4.66003e-05
4.56934e-05
4.47137e-05
4.36741e-05
4.25904e-05
4.14698e-05
4.03206e-05
3.91506e-05
3.79652e-05
3.67687e-05
3.55914e-05
3.43029e-05
3.33359e-05
1.58835e-05
1.70361e-05
1.71858e-05
1.78359e-05
1.8648e-05
1.95521e-05
2.05803e-05
2.17227e-05
2.2958e-05
2.42636e-05
2.5622e-05
2.70124e-05
2.84152e-05
2.9805e-05
3.11583e-05
3.24475e-05
3.36477e-05
3.47323e-05
3.56775e-05
3.64612e-05
3.70574e-05
3.74679e-05
3.76996e-05
3.77482e-05
3.76329e-05
3.73732e-05
3.69869e-05
3.64931e-05
3.59086e-05
3.52504e-05
3.45315e-05
3.37663e-05
3.29666e-05
3.21404e-05
3.12934e-05
3.04392e-05
2.9581e-05
2.87141e-05
2.78761e-05
2.69243e-05
2.62833e-05
1.24955e-05
1.33276e-05
1.34654e-05
1.39551e-05
1.45622e-05
1.52405e-05
1.60125e-05
1.68689e-05
1.77946e-05
1.87725e-05
1.97904e-05
2.08321e-05
2.18836e-05
2.29256e-05
2.3942e-05
2.4912e-05
2.58185e-05
2.66415e-05
2.73647e-05
2.7971e-05
2.84414e-05
2.87788e-05
2.8988e-05
2.90633e-05
2.90168e-05
2.88623e-05
2.86118e-05
2.82789e-05
2.78745e-05
2.74099e-05
2.68948e-05
2.63408e-05
2.57556e-05
2.51443e-05
2.45141e-05
2.38748e-05
2.32317e-05
2.25805e-05
2.19564e-05
2.12166e-05
2.0762e-05
9.92844e-06
1.05334e-05
1.06578e-05
1.10325e-05
1.14925e-05
1.20085e-05
1.25942e-05
1.32428e-05
1.39421e-05
1.46808e-05
1.54487e-05
1.62346e-05
1.7027e-05
1.78126e-05
1.85782e-05
1.93096e-05
1.99934e-05
2.06155e-05
2.11635e-05
2.16256e-05
2.19866e-05
2.22512e-05
2.24232e-05
2.24965e-05
2.24793e-05
2.23809e-05
2.221e-05
2.19759e-05
2.16873e-05
2.13524e-05
2.09802e-05
2.05778e-05
2.01517e-05
1.97056e-05
1.92467e-05
1.87819e-05
1.83162e-05
1.78408e-05
1.73927e-05
1.68271e-05
1.65318e-05
7.95479e-06
8.39832e-06
8.50848e-06
8.79829e-06
9.1521e-06
9.55035e-06
9.99994e-06
1.04964e-05
1.10292e-05
1.15916e-05
1.21743e-05
1.27709e-05
1.3371e-05
1.39662e-05
1.4545e-05
1.50981e-05
1.56142e-05
1.60842e-05
1.64978e-05
1.6847e-05
1.712e-05
1.73221e-05
1.74574e-05
1.75197e-05
1.7515e-05
1.74497e-05
1.73305e-05
1.71637e-05
1.69566e-05
1.67151e-05
1.64459e-05
1.61527e-05
1.58412e-05
1.55138e-05
1.51754e-05
1.48299e-05
1.4481e-05
1.41203e-05
1.37848e-05
1.33369e-05
1.31098e-05
6.42026e-06
6.74455e-06
6.84148e-06
7.06822e-06
7.34389e-06
7.65527e-06
8.00511e-06
8.38926e-06
8.79936e-06
9.23065e-06
9.67615e-06
1.01313e-05
1.05883e-05
1.10409e-05
1.14802e-05
1.18994e-05
1.22898e-05
1.26447e-05
1.29564e-05
1.3219e-05
1.34237e-05
1.35759e-05
1.36797e-05
1.37298e-05
1.373e-05
1.36854e-05
1.36007e-05
1.34811e-05
1.33317e-05
1.31575e-05
1.29616e-05
1.27474e-05
1.25188e-05
1.22784e-05
1.20276e-05
1.17708e-05
1.1511e-05
1.12409e-05
1.09941e-05
1.06528e-05
1.048e-05
5.21355e-06
5.45142e-06
5.5345e-06
5.71209e-06
5.92955e-06
6.17582e-06
6.45201e-06
6.75284e-06
7.07232e-06
7.40588e-06
7.74938e-06
8.09856e-06
8.44863e-06
8.79409e-06
9.12903e-06
9.44748e-06
9.74339e-06
1.00112e-05
1.02458e-05
1.04426e-05
1.05949e-05
1.0708e-05
1.07859e-05
1.08236e-05
1.08239e-05
1.07913e-05
1.07289e-05
1.06413e-05
1.05317e-05
1.04039e-05
1.02599e-05
1.01033e-05
9.93605e-06
9.76009e-06
9.57583e-06
9.38677e-06
9.19597e-06
8.99644e-06
8.8177e-06
8.56374e-06
8.43128e-06
4.25731e-06
4.4298e-06
4.49997e-06
4.63907e-06
4.81126e-06
5.00805e-06
5.22872e-06
5.46735e-06
5.71944e-06
5.9803e-06
6.24758e-06
6.51738e-06
6.78718e-06
7.05212e-06
7.30868e-06
7.55152e-06
7.77672e-06
7.97934e-06
8.15597e-06
8.30296e-06
8.41555e-06
8.49874e-06
8.55615e-06
8.58352e-06
8.58287e-06
8.55763e-06
8.51046e-06
8.44485e-06
8.36329e-06
8.26867e-06
8.163e-06
8.04853e-06
7.92679e-06
7.79808e-06
7.66325e-06
7.52437e-06
7.38485e-06
7.23712e-06
7.10716e-06
6.91917e-06
6.81543e-06
3.49354e-06
3.61812e-06
3.67471e-06
3.78343e-06
3.92019e-06
4.0781e-06
4.25577e-06
4.44741e-06
4.64862e-06
4.85525e-06
5.06525e-06
5.27574e-06
5.48491e-06
5.68954e-06
5.8871e-06
6.07362e-06
6.24598e-06
6.40031e-06
6.53381e-06
6.64394e-06
6.72731e-06
6.78843e-06
6.83102e-06
6.85136e-06
6.85082e-06
6.83128e-06
6.7958e-06
6.74636e-06
6.68547e-06
6.61463e-06
6.53616e-06
6.45078e-06
6.36054e-06
6.26484e-06
6.165e-06
6.06169e-06
5.95849e-06
5.84803e-06
5.752e-06
5.61381e-06
5.52706e-06
2.88011e-06
2.96838e-06
3.01369e-06
3.09808e-06
3.20582e-06
3.33279e-06
3.47618e-06
3.63133e-06
3.79345e-06
3.95921e-06
4.12592e-06
4.29186e-06
4.45527e-06
4.61452e-06
4.76751e-06
4.91186e-06
5.04476e-06
5.16342e-06
5.26561e-06
5.34915e-06
5.41121e-06
5.45621e-06
5.488e-06
5.5029e-06
5.50266e-06
5.48827e-06
5.46187e-06
5.42428e-06
5.37808e-06
5.32403e-06
5.26446e-06
5.19988e-06
5.13208e-06
5.06054e-06
4.98613e-06
4.90932e-06
4.83274e-06
4.7502e-06
4.67879e-06
4.57917e-06
4.50079e-06
2.38502e-06
2.44646e-06
2.48168e-06
2.54729e-06
2.63185e-06
2.73326e-06
2.84894e-06
2.97476e-06
3.10618e-06
3.24032e-06
3.3741e-06
3.5062e-06
3.63494e-06
3.75966e-06
3.87879e-06
3.99123e-06
4.09471e-06
4.18726e-06
4.26661e-06
4.33093e-06
4.37761e-06
4.41074e-06
4.43403e-06
4.44465e-06
4.44366e-06
4.43225e-06
4.41179e-06
4.38316e-06
4.34757e-06
4.30631e-06
4.26069e-06
4.21175e-06
4.16027e-06
4.10676e-06
4.05117e-06
3.99435e-06
3.93757e-06
3.87639e-06
3.82315e-06
3.75252e-06
3.68097e-06
1.9819e-06
2.02431e-06
2.05293e-06
2.10367e-06
2.17017e-06
2.25106e-06
2.34377e-06
2.44533e-06
2.55191e-06
2.66071e-06
2.76895e-06
2.87499e-06
2.97737e-06
3.07562e-06
3.16892e-06
3.25669e-06
3.33788e-06
3.41091e-06
3.47368e-06
3.52476e-06
3.56135e-06
3.58649e-06
3.6036e-06
3.61078e-06
3.60855e-06
3.59883e-06
3.58229e-06
3.55999e-06
3.53226e-06
3.50051e-06
3.46497e-06
3.42705e-06
3.38709e-06
3.34612e-06
3.30372e-06
3.26085e-06
3.21833e-06
3.17272e-06
3.13306e-06
3.08346e-06
3.01882e-06
1.652e-06
1.68147e-06
1.70537e-06
1.74595e-06
1.79901e-06
1.86298e-06
1.93696e-06
2.01823e-06
2.10427e-06
2.19226e-06
2.28003e-06
2.36559e-06
2.44774e-06
2.52558e-06
2.59891e-06
2.66754e-06
2.73105e-06
2.78878e-06
2.8394e-06
2.88114e-06
2.91116e-06
2.93191e-06
2.94555e-06
2.95069e-06
2.94793e-06
2.93918e-06
2.92492e-06
2.90673e-06
2.8847e-06
2.85991e-06
2.83222e-06
2.80254e-06
2.7712e-06
2.73894e-06
2.70569e-06
2.67204e-06
2.63914e-06
2.60424e-06
2.57364e-06
2.53894e-06
2.48148e-06
1.37928e-06
1.40074e-06
1.42219e-06
1.45597e-06
1.49896e-06
1.55015e-06
1.60907e-06
1.67389e-06
1.74287e-06
1.81372e-06
1.88468e-06
1.95382e-06
2.01997e-06
2.08204e-06
2.13985e-06
2.19334e-06
2.24273e-06
2.28788e-06
2.3284e-06
2.36292e-06
2.38887e-06
2.40747e-06
2.42044e-06
2.42571e-06
2.42364e-06
2.41555e-06
2.4029e-06
2.3871e-06
2.369e-06
2.34898e-06
2.32734e-06
2.30409e-06
2.27974e-06
2.25422e-06
2.22783e-06
2.20069e-06
2.17418e-06
2.14607e-06
2.12053e-06
2.09647e-06
2.04418e-06
1.15238e-06
1.16867e-06
1.18877e-06
1.21826e-06
1.25442e-06
1.29642e-06
1.34395e-06
1.39607e-06
1.45131e-06
1.50826e-06
1.56538e-06
1.62118e-06
1.67433e-06
1.724e-06
1.76955e-06
1.81113e-06
1.84907e-06
1.88373e-06
1.91526e-06
1.94343e-06
1.96607e-06
1.98385e-06
1.99774e-06
2.00516e-06
2.00553e-06
1.99971e-06
1.98889e-06
1.97454e-06
1.95804e-06
1.94036e-06
1.92212e-06
1.90342e-06
1.88446e-06
1.8649e-06
1.84463e-06
1.82352e-06
1.80257e-06
1.78028e-06
1.75848e-06
1.74284e-06
1.69453e-06
9.61972e-07
9.75092e-07
9.94181e-07
1.02067e-06
1.0525e-06
1.08825e-06
1.12789e-06
1.17052e-06
1.21538e-06
1.26141e-06
1.30752e-06
1.3525e-06
1.39526e-06
1.43481e-06
1.47076e-06
1.5029e-06
1.53156e-06
1.55742e-06
1.58113e-06
1.60276e-06
1.62139e-06
1.63773e-06
1.65234e-06
1.66228e-06
1.66658e-06
1.66459e-06
1.65708e-06
1.64482e-06
1.62972e-06
1.61305e-06
1.5963e-06
1.57989e-06
1.56423e-06
1.54894e-06
1.53363e-06
1.51778e-06
1.50173e-06
1.48443e-06
1.46558e-06
1.45433e-06
1.41207e-06
8.0172e-07
8.12159e-07
8.29809e-07
8.54291e-07
8.82829e-07
9.14618e-07
9.48707e-07
9.84764e-07
1.02211e-06
1.06018e-06
1.09799e-06
1.13471e-06
1.16938e-06
1.20119e-06
1.2296e-06
1.25436e-06
1.27579e-06
1.29433e-06
1.31092e-06
1.32618e-06
1.33993e-06
1.35308e-06
1.36647e-06
1.37763e-06
1.38531e-06
1.38812e-06
1.38577e-06
1.37808e-06
1.36626e-06
1.35156e-06
1.33579e-06
1.32013e-06
1.30548e-06
1.292e-06
1.2792e-06
1.26648e-06
1.25348e-06
1.23963e-06
1.22288e-06
1.21211e-06
1.1769e-06
6.66671e-07
6.74744e-07
6.90517e-07
7.12279e-07
7.38394e-07
7.66882e-07
7.97019e-07
8.28475e-07
8.60626e-07
8.93073e-07
9.25086e-07
9.56021e-07
9.85027e-07
1.01141e-06
1.0345e-06
1.05405e-06
1.07011e-06
1.08309e-06
1.09385e-06
1.10321e-06
1.11156e-06
1.12028e-06
1.13027e-06
1.14022e-06
1.14894e-06
1.15523e-06
1.15788e-06
1.1561e-06
1.14961e-06
1.13901e-06
1.12547e-06
1.11062e-06
1.09588e-06
1.08215e-06
1.06949e-06
1.05749e-06
1.04557e-06
1.03343e-06
1.01828e-06
1.00709e-06
9.75588e-07
5.53577e-07
5.59148e-07
5.72332e-07
5.91383e-07
6.1427e-07
6.39734e-07
6.66656e-07
6.94476e-07
7.22834e-07
7.51179e-07
7.79111e-07
8.06112e-07
8.31497e-07
8.54599e-07
8.74729e-07
8.91385e-07
9.04376e-07
9.13896e-07
9.20614e-07
9.25267e-07
9.28804e-07
9.32693e-07
9.38062e-07
9.44575e-07
9.51778e-07
9.58915e-07
9.64857e-07
9.68445e-07
9.68509e-07
9.64434e-07
9.56243e-07
9.44803e-07
9.31519e-07
9.17777e-07
9.04583e-07
8.92263e-07
8.80595e-07
8.69478e-07
8.5577e-07
8.4582e-07
8.18259e-07
4.58932e-07
4.62555e-07
4.73282e-07
4.8896e-07
5.08573e-07
5.30527e-07
5.53946e-07
5.78396e-07
6.03309e-07
6.28303e-07
6.53059e-07
6.77155e-07
7.00113e-07
7.21292e-07
7.40056e-07
7.55807e-07
7.68071e-07
7.76658e-07
7.81761e-07
7.83973e-07
7.84086e-07
7.83651e-07
7.83818e-07
7.85124e-07
7.87764e-07
7.91709e-07
7.96368e-07
8.00963e-07
8.043e-07
8.05321e-07
8.02988e-07
7.96968e-07
7.87508e-07
7.75648e-07
7.62686e-07
7.49844e-07
7.37752e-07
7.27078e-07
7.14155e-07
7.08404e-07
6.834e-07
3.81529e-07
3.83655e-07
3.92309e-07
4.05067e-07
4.20981e-07
4.38898e-07
4.58194e-07
4.78336e-07
4.991e-07
5.20298e-07
5.41807e-07
5.63259e-07
5.84298e-07
6.0426e-07
6.22555e-07
6.3845e-07
6.51385e-07
6.61024e-07
6.67116e-07
6.70035e-07
6.70231e-07
6.68927e-07
6.67197e-07
6.66007e-07
6.65919e-07
6.67385e-07
6.7033e-07
6.74468e-07
6.79172e-07
6.83626e-07
6.86747e-07
6.87488e-07
6.85028e-07
6.79124e-07
6.70202e-07
6.59292e-07
6.47615e-07
6.36843e-07
6.24305e-07
6.20863e-07
6.0131e-07
3.17566e-07
3.19446e-07
3.26965e-07
3.37505e-07
3.50495e-07
3.64908e-07
3.80061e-07
3.95524e-07
4.11258e-07
4.27293e-07
4.43822e-07
4.60956e-07
4.78701e-07
4.96746e-07
5.14568e-07
5.31326e-07
5.46148e-07
5.58146e-07
5.66638e-07
5.71322e-07
5.72186e-07
5.69839e-07
5.65462e-07
5.60112e-07
5.5476e-07
5.50199e-07
5.46855e-07
5.44869e-07
5.44192e-07
5.44575e-07
5.4569e-07
5.46899e-07
5.47492e-07
5.46572e-07
5.43502e-07
5.38059e-07
5.30546e-07
5.22472e-07
5.11594e-07
5.11391e-07
4.84795e-07
2.65145e-07
2.67471e-07
2.74383e-07
2.83171e-07
2.93587e-07
3.05213e-07
3.17443e-07
3.29854e-07
3.42094e-07
3.53976e-07
3.65492e-07
3.76829e-07
3.88356e-07
4.00439e-07
4.13403e-07
4.27336e-07
4.42026e-07
4.56979e-07
4.71437e-07
4.84622e-07
4.95644e-07
5.03979e-07
5.09779e-07
5.13035e-07
5.14178e-07
5.13882e-07
5.12862e-07
5.11694e-07
5.10764e-07
5.10237e-07
5.10143e-07
5.10332e-07
5.10581e-07
5.10419e-07
5.09261e-07
5.06478e-07
5.01681e-07
4.95079e-07
4.85266e-07
4.7997e-07
4.58264e-07
2.23383e-07
2.27132e-07
2.33775e-07
2.40481e-07
2.47455e-07
2.54924e-07
2.63159e-07
2.72343e-07
2.82545e-07
2.93487e-07
3.04734e-07
3.15732e-07
3.25994e-07
3.35153e-07
3.43025e-07
3.49627e-07
3.55068e-07
3.59523e-07
3.63043e-07
3.65692e-07
3.6713e-07
3.67317e-07
3.66524e-07
3.64806e-07
3.62328e-07
3.59322e-07
3.5613e-07
3.53056e-07
3.50336e-07
3.48104e-07
3.46429e-07
3.45347e-07
3.44908e-07
3.45129e-07
3.45923e-07
3.47067e-07
3.48018e-07
3.48812e-07
3.46337e-07
3.52527e-07
3.17418e-07
1.89474e-07
1.95502e-07
2.03571e-07
2.10188e-07
2.14985e-07
2.18234e-07
2.20397e-07
2.22122e-07
2.24107e-07
2.27048e-07
2.3164e-07
2.38534e-07
2.48226e-07
2.60983e-07
2.76706e-07
2.95032e-07
3.15259e-07
3.36579e-07
3.58109e-07
3.78909e-07
3.98455e-07
4.16053e-07
4.31276e-07
4.43543e-07
4.52769e-07
4.59069e-07
4.62763e-07
4.64239e-07
4.63954e-07
4.62307e-07
4.59581e-07
4.55934e-07
4.5142e-07
4.46016e-07
4.39679e-07
4.32372e-07
4.24194e-07
4.15114e-07
4.04966e-07
3.94138e-07
3.863e-07
1.63104e-07
1.71366e-07
1.8125e-07
1.89819e-07
1.9638e-07
2.00679e-07
2.02475e-07
2.01806e-07
1.98955e-07
1.94508e-07
1.89226e-07
1.84047e-07
1.79816e-07
1.772e-07
1.76476e-07
1.77528e-07
1.79918e-07
1.83066e-07
1.86454e-07
1.8979e-07
1.92664e-07
1.95067e-07
1.9685e-07
1.98478e-07
2.00216e-07
2.02138e-07
2.04257e-07
2.06524e-07
2.0881e-07
2.10982e-07
2.12898e-07
2.1453e-07
2.15898e-07
2.17214e-07
2.18776e-07
2.21045e-07
2.24235e-07
2.29038e-07
2.32844e-07
2.44537e-07
2.34425e-07
1.4384e-07
1.50532e-07
1.56653e-07
1.64324e-07
1.77905e-07
2.00273e-07
2.30884e-07
2.66906e-07
3.05072e-07
3.42557e-07
3.77338e-07
4.08005e-07
4.33829e-07
4.5445e-07
4.69986e-07
4.80735e-07
4.87318e-07
4.90364e-07
4.90642e-07
4.88743e-07
4.85428e-07
4.83087e-07
4.80412e-07
4.78006e-07
4.76096e-07
4.74737e-07
4.73905e-07
4.73485e-07
4.73287e-07
4.73051e-07
4.72484e-07
4.71253e-07
4.69048e-07
4.65527e-07
4.606e-07
4.54242e-07
4.46578e-07
4.37334e-07
4.27952e-07
4.20144e-07
4.02863e-07
0.105506
0.150884
0.176677
0.188722
0.196351
0.196048
0.191751
0.186707
0.178992
0.170167
0.16372
0.156993
0.15132
0.14721
0.138906
0.131444
0.121258
0.113151
0.105587
0.0987521
0.093164
0.0875499
0.0816732
0.0758759
0.0701771
0.0636785
0.0580267
0.0515575
0.0445599
0.0368439
0.0294414
0.0215161
0.0137595
0.00664022
0.00305112
0.00977143
0.0167395
0.0233492
0.0294765
0.0348644
0.0395657
0.0434769
0.0464474
0.0487709
0.0500154
0.0506969
0.0506211
0.0498413
0.0484587
0.0465899
0.0443233
0.0417158
0.0388757
0.0358612
0.0327651
0.0297285
0.0267105
0.0238123
0.0210483
0.0184437
0.0160082
0.013731
0.0116193
0.00966875
0.00788081
0.00626519
0.00483067
0.00359363
0.0025631
0.00174094
0.00111916
0.000670636
0.000389639
0.000138936
0.511276
0.414773
0.367817
0.344502
0.328088
0.311046
0.292424
0.274537
0.256268
0.238336
0.223343
0.209823
0.197645
0.1887
0.17849
0.169519
0.158839
0.149195
0.140366
0.13224
0.126717
0.122397
0.118385
0.1145
0.11047
0.105368
0.100796
0.0957143
0.08963
0.082486
0.0751248
0.0669988
0.0584842
0.0500899
0.0410455
0.0320185
0.0232741
0.0147334
0.00670079
0.00168242
0.00821114
0.0142203
0.0199472
0.0247556
0.0287517
0.0320642
0.0344282
0.036231
0.0374251
0.0379673
0.0379417
0.0374337
0.0365325
0.0352943
0.0338215
0.0321985
0.030436
0.0286349
0.0268133
0.0250122
0.0232529
0.021532
0.0198589
0.0182204
0.0166015
0.0149935
0.0133799
0.0117631
0.0101502
0.00855903
0.00703173
0.00554881
0.00440408
0.00269356
0.456332
0.400031
0.364321
0.341588
0.319768
0.29997
0.280585
0.261512
0.243083
0.225604
0.209909
0.196962
0.184496
0.173795
0.164617
0.156239
0.14856
0.140916
0.134098
0.1282
0.123751
0.121946
0.121521
0.121847
0.121981
0.120888
0.119345
0.117276
0.11403
0.109559
0.104273
0.098076
0.090968
0.0837536
0.0757395
0.0673721
0.0590144
0.0505949
0.0422722
0.0340022
0.026427
0.0195859
0.0124981
0.00638092
0.00101276
0.00444473
0.00848699
0.0121826
0.0154231
0.017997
0.0199496
0.0213927
0.0223585
0.0229251
0.0231761
0.0230905
0.02279
0.0223213
0.0217287
0.0210608
0.0203496
0.0196286
0.0189176
0.0182235
0.0175504
0.0168909
0.0162324
0.0155544
0.0148337
0.0140399
0.0131785
0.0121167
0.0112554
0.0093281
0.349887
0.287259
0.245428
0.219956
0.198497
0.181363
0.166842
0.153299
0.140769
0.129294
0.118895
0.111128
0.103666
0.0966213
0.0912048
0.0861793
0.0826589
0.0793217
0.0766283
0.0749435
0.0732271
0.0740996
0.0768176
0.0813789
0.0867703
0.0920078
0.0961326
0.0994684
0.101498
0.102231
0.101737
0.100105
0.0971283
0.0935048
0.0889798
0.0837256
0.0781091
0.0721105
0.0658855
0.0594477
0.0531272
0.0472229
0.0409526
0.0350927
0.0293608
0.0240155
0.019356
0.0149266
0.0107569
0.00710113
0.00398358
0.00132882
0.000983081
0.00279125
0.0043045
0.00542163
0.00628933
0.00691584
0.00734881
0.00763046
0.00778851
0.00787237
0.00790799
0.0079182
0.00793161
0.00795855
0.00801811
0.00811225
0.00824183
0.00839838
0.00858277
0.00877204
0.00887358
0.00930925
0.184869
0.133261
0.099147
0.0795661
0.0655989
0.0555952
0.0481361
0.0418934
0.0363864
0.0314503
0.0271647
0.0241214
0.0215705
0.019387
0.0177444
0.0162566
0.0153311
0.0146261
0.0142568
0.0142602
0.0141087
0.0147176
0.016093
0.0187988
0.0230116
0.0288401
0.0353431
0.0423374
0.0490777
0.0552049
0.0603604
0.0645432
0.067435
0.0692941
0.0702201
0.0701412
0.0692781
0.0676893
0.0655027
0.0628925
0.0597846
0.0566182
0.0531446
0.0494689
0.0457419
0.0419058
0.038312
0.0347819
0.0312442
0.0278911
0.024807
0.0219458
0.0193529
0.0170129
0.0149061
0.0131263
0.0115633
0.0102267
0.00908543
0.00811171
0.00729291
0.00658915
0.00598186
0.00545271
0.00497164
0.00452614
0.00409093
0.00365449
0.0032075
0.00273641
0.0022567
0.00166124
0.00131334
0.000188805
0.0411986
0.0249959
0.0150376
0.0100192
0.0069812
0.00503891
0.00379046
0.00288001
0.00210758
0.00143485
0.000898704
0.000556857
0.00036011
0.000272286
0.000215374
0.000167266
0.000124464
9.51506e-05
8.28912e-05
8.63632e-05
8.80935e-05
9.59693e-05
0.000105836
0.000138899
0.000249374
0.000608066
0.0013739
0.00269625
0.00467829
0.00738825
0.0107303
0.0145976
0.0186966
0.0227848
0.0267681
0.0303708
0.0334908
0.0360842
0.0381085
0.0397827
0.0406884
0.0411911
0.0414036
0.0410416
0.0404575
0.0394177
0.0382046
0.0368431
0.0352812
0.0336116
0.0318912
0.0301529
0.0284227
0.0267375
0.0250911
0.0235357
0.0220644
0.020677
0.0193797
0.0181624
0.0170253
0.0159567
0.0149467
0.0139908
0.0130753
0.0121933
0.0113369
0.0105004
0.00968328
0.00887901
0.00810611
0.00730166
0.00666846
0.00560065
0.00233393
0.000983331
0.000390946
0.000182533
9.496e-05
5.53073e-05
5.11453e-05
6.3987e-05
7.31424e-05
7.14332e-05
5.7964e-05
3.63931e-05
1.33049e-05
3.08116e-05
5.51793e-05
7.37315e-05
7.52492e-05
6.45881e-05
3.99733e-05
1.03134e-05
3.16006e-05
6.24156e-05
7.77211e-05
7.78088e-05
6.14392e-05
3.76066e-05
1.61801e-05
2.3347e-05
3.27819e-05
4.64604e-05
8.81624e-05
0.000213016
0.000500487
0.000991236
0.00173065
0.00273562
0.00400158
0.00549636
0.00716093
0.00901591
0.0107921
0.0125278
0.0142953
0.015791
0.0172072
0.0182903
0.019117
0.0197249
0.0201022
0.0202613
0.0201847
0.0199379
0.0195173
0.018984
0.0183261
0.0175353
0.0166805
0.0157443
0.0147558
0.0137259
0.0126609
0.0115864
0.0105045
0.0094339
0.00839
0.00738319
0.00643088
0.00554212
0.00472671
0.00399071
0.00333829
0.00276796
0.0022975
0.00174599
0.000335636
0.000223024
0.00014866
0.000119291
9.54617e-05
6.5438e-05
6.11377e-05
0.000118681
0.000176232
0.000201521
0.000188143
0.000144844
8.1892e-05
4.54281e-05
7.90079e-05
0.000116024
0.000125629
0.000115481
8.85486e-05
5.48795e-05
4.94424e-05
7.33907e-05
9.41929e-05
0.000103826
9.89324e-05
8.40514e-05
6.01178e-05
4.0728e-05
3.17401e-05
3.4675e-05
3.97077e-05
4.15487e-05
4.00914e-05
3.79226e-05
3.52107e-05
3.32741e-05
3.46655e-05
4.38056e-05
7.03903e-05
0.000138746
0.000262193
0.000450478
0.000715095
0.00102356
0.00139609
0.00178702
0.00218586
0.0025795
0.00295064
0.00327924
0.00353593
0.00372415
0.0038262
0.0038547
0.00380045
0.00365825
0.00345671
0.0031962
0.00289636
0.00257166
0.00223489
0.00190414
0.00158808
0.00129769
0.00103967
0.000816674
0.000630008
0.000477485
0.000355924
0.00026134
0.000189484
0.000136466
9.90378e-05
6.5614e-05
0.000579611
0.000436912
0.000285301
0.000196616
0.000147673
0.000108418
8.41495e-05
0.000119396
0.000175685
0.00020894
0.000209264
0.000180749
0.000131155
8.34857e-05
6.6806e-05
8.17719e-05