/*--------------------------------*- C++ -*----------------------------------*\
| =========                 |                                                 |
| \\      /  F ield         | OpenFOAM: The Open Source CFD Toolbox           |
|  \\    /   O peration     | Version:  2312                                  |
|   \\  /    A nd           | Website:  www.openfoam.com                      |
|    \\/     M anipulation  |                                                 |
\*---------------------------------------------------------------------------*/
FoamFile
{
    version     2.0;
    format      ascii;
    arch        "LSB;label=32;scalar=64";
    class       volScalarField;
    location    "50";
    object      turbulenceProperties:epsilon;
}
// * * * * * * * * * * * * * * * * * * * * * * * * * * * * * * * * * * * * * //

dimensions      [0 2 -3 0 0 0 0];

internalField   nonuniform List<scalar> 
11040
(
4.34987
21.6445
87.9066
231.896
464.528
814.551
1256.59
1642.1
1869.78
1968.25
2000.87
2004.62
1992.86
1968.5
1931.54
1881.13
1815.99
1735.39
1640.69
1535.15
1421.13
1307.87
1208.11
1124.13
1049.46
976.876
903.821
832.025
764.656
704.528
652.798
607.685
565.761
522.303
473.287
417.209
355.011
290.722
223.892
169.406
89.4991
0.613673
0.742846
0.958519
0.916056
0.840238
1.02175
1.86527
3.22839
4.57219
5.82849
7.00808
8.08316
9.02261
9.84275
10.6047
11.3798
12.1968
13.0426
13.8685
14.6229
15.3329
15.8229
15.8057
15.4141
14.9436
14.5598
14.2998
14.0574
13.7516
13.3219
12.7622
12.1992
11.7126
11.4286
11.4183
11.7156
12.3401
13.2271
14.3241
15.5329
19.0015
0.330477
0.23015
0.0930853
0.0577018
0.0757204
0.0844154
0.0772417
0.0633761
0.0496619
0.0388849
0.0289425
0.0189971
0.0123615
0.028983
0.102888
0.268552
0.55426
0.97441
1.52378
2.17927
2.92104
3.71377
4.48716
5.16379
5.72359
6.17828
6.52911
6.7825
6.93244
6.98286
6.95481
6.87484
6.78851
6.72029
6.69998
6.74421
6.85741
7.00635
7.30439
7.46056
9.55935
0.14201
0.129111
0.105618
0.0890314
0.0736004
0.057664
0.0434927
0.0320869
0.0230862
0.0160538
0.0107465
0.00678
0.00387465
0.00193765
0.000853168
0.000444455
0.000682196
0.00211847
0.00671314
0.0187329
0.0460222
0.0969271
0.172711
0.274311
0.406
0.570797
0.764481
0.97639
1.19343
1.4069
1.61655
1.8323
2.06988
2.34531
2.66945
3.04102
3.45043
3.87078
4.37091
4.74302
6.28689
0.0635348
0.0646171
0.0555113
0.0405197
0.0247038
0.0140539
0.00903398
0.00723892
0.00670618
0.00644473
0.00608265
0.00551063
0.00477845
0.0040493
0.00340163
0.00283211
0.00227169
0.00170782
0.00121438
0.000852192
0.00061229
0.000445762
0.00031718
0.000202204
0.000188978
0.000721287
0.00272586
0.00721802
0.0148547
0.0262406
0.0426724
0.0667331
0.1025
0.156517
0.238244
0.359158
0.53133
0.767546
1.11284
1.51111
2.68121
0.0283339
0.0310858
0.0303298
0.0273581
0.022583
0.0176875
0.0135556
0.0103612
0.00798018
0.00620422
0.00484597
0.00377607
0.00292245
0.00223591
0.00165292
0.00116285
0.000781114
0.000509725
0.000329363
0.000216039
0.000146314
0.000111514
0.000106004
0.000110435
0.000103036
7.92564e-05
5.90406e-05
5.57093e-05
6.45092e-05
8.3117e-05
0.000126639
0.000217868
0.000373068
0.000626808
0.00116895
0.00276081
0.00745057
0.0193012
0.0481966
0.0979448
0.328931
0.012985
0.0147883
0.0152856
0.0150572
0.0133008
0.0105713
0.0077732
0.00548345
0.00386137
0.00281359
0.00217018
0.00177634
0.00152078
0.0013447
0.00122576
0.00115225
0.00110044
0.00102728
0.000899894
0.000736266
0.000589929
0.000490803
0.000439277
0.000418229
0.000395502
0.000339505
0.000258532
0.000188787
0.000150368
0.000137423
0.000142689
0.000164321
0.000188457
0.000188819
0.000155271
0.000110014
8.41768e-05
9.16775e-05
0.000179842
0.000337674
0.00582613
0.00603856
0.00700925
0.00744442
0.00791678
0.00780714
0.00708937
0.00605832
0.00498755
0.00403138
0.00323993
0.00260523
0.00209631
0.00168446
0.00135279
0.00109089
0.00088626
0.000721575
0.000583438
0.000461635
0.000352803
0.000262455
0.000195539
0.000152248
0.000131639
0.000129838
0.000130673
0.000119542
0.000101595
9.06894e-05
8.84243e-05
8.80933e-05
9.28189e-05
0.000113618
0.000148933
0.000179008
0.000188716
0.000187879
0.000188537
0.000192338
0.000137921
0.000104495
0.00284401
0.00333918
0.00355534
0.00393795
0.00415197
0.0040646
0.00372056
0.00322327
0.00267931
0.00216717
0.0017294
0.00137586
0.0010995
0.00088783
0.000729393
0.000618507
0.000549958
0.000511742
0.000483498
0.000445133
0.00038876
0.000327789
0.000280569
0.00025568
0.000252028
0.000255148
0.000245594
0.000216731
0.000180137
0.000150749
0.000133372
0.000127018
0.000134328
0.000158467
0.000192108
0.000220419
0.000238444
0.000255691
0.000289296
0.000315908
0.000281055
0.00134759
0.00159765
0.00168579
0.00190322
0.00210181
0.00219857
0.00218021
0.00206169
0.0018747
0.00165581
0.00143451
0.00122748
0.00104143
0.000877943
0.000736346
0.000616808
0.000519546
0.000441709
0.000377145
0.000318399
0.00026175
0.000210421
0.000169224
0.000140963
0.000125712
0.000120337
0.000118447
0.000113502
0.000104556
9.58752e-05
9.01448e-05
8.61134e-05
8.39505e-05
8.88921e-05
0.000105183
0.00012981
0.000156649
0.000183732
0.000219467
0.000259855
0.000290192
0.000640426
0.000766543
0.000797883
0.000904638
0.00102386
0.00111647
0.00116887
0.00117387
0.0011323
0.00105376
0.000952628
0.00084198
0.000731623
0.000628194
0.000535225
0.000454881
0.000389101
0.000338909
0.000302611
0.000274667
0.000247548
0.000218303
0.000189225
0.000165074
0.000150299
0.000145765
0.000148099
0.00015096
0.000149105
0.000141826
0.00013201
0.000122248
0.000113884
0.000109065
0.000110443
0.000118226
0.000129125
0.000139264
0.000150285
0.000161696
0.00017306
0.000304323
0.00036769
0.00037736
0.000426486
0.000487984
0.000545703
0.000594216
0.00062782
0.000641792
0.000635217
0.000611047
0.000573822
0.000528362
0.000478985
0.000428917
0.000380498
0.00033562
0.000295797
0.000261441
0.00023126
0.000203294
0.000176656
0.000151272
0.000128675
0.000111287
0.000100226
9.48442e-05
9.29322e-05
9.16401e-05
8.91219e-05
8.52603e-05
8.06203e-05
7.53567e-05
6.98677e-05
6.56545e-05
6.47069e-05
6.76976e-05
7.37825e-05
8.2164e-05
9.15216e-05
0.000101092
0.000144359
0.000175907
0.000178288
0.000200196
0.000229609
0.000259886
0.000289651
0.000316523
0.000337266
0.00034944
0.00035222
0.000346033
0.000332201
0.000312608
0.000289244
0.000263922
0.000238267
0.000213744
0.000191543
0.000172202
0.000155282
0.000140266
0.000126347
0.000113298
0.000102143
9.39639e-05
8.91408e-05
8.71305e-05
8.658e-05
8.59856e-05
8.43767e-05
8.15366e-05
7.75701e-05
7.271e-05
6.75948e-05
6.33893e-05
6.09607e-05
6.04841e-05
6.1366e-05
6.25575e-05
6.47446e-05
6.82602e-05
8.37467e-05
8.40467e-05
9.36872e-05
0.00010723
0.000121873
0.000137519
0.000153531
0.000168541
0.000181123
0.000190246
0.000195314
0.000196165
0.000193067
0.000186581
0.000177437
0.000166418
0.000154332
0.000141973
0.000129945
0.000118592
0.000108162
9.83965e-05
8.90209e-05
8.04194e-05
7.31178e-05
6.74504e-05
6.34076e-05
6.06463e-05
5.85925e-05
5.67074e-05
5.46463e-05
5.22298e-05
4.93669e-05
4.61046e-05
4.28365e-05
4.00954e-05
3.84651e-05
3.79689e-05
3.81484e-05
3.94585e-05
3.21226e-05
3.95816e-05
3.9461e-05
4.36854e-05
4.9793e-05
5.65699e-05
6.41479e-05
7.24421e-05
8.0987e-05
8.918e-05
9.64557e-05
0.000102322
0.000106401
0.000108482
0.000108542
0.000106722
0.000103299
9.86281e-05
9.31226e-05
8.71821e-05
8.11348e-05
7.54022e-05
7.00919e-05
6.50217e-05
6.02624e-05
5.59784e-05
5.23545e-05
4.95157e-05
4.74725e-05
4.60811e-05
4.50945e-05
4.4217e-05
4.31634e-05
4.16931e-05
3.96753e-05
3.71964e-05
3.44852e-05
3.19046e-05
2.97225e-05
2.78945e-05
2.68481e-05
1.50332e-05
1.85447e-05
1.84311e-05
2.02804e-05
2.29936e-05
2.60476e-05
2.95527e-05
3.35395e-05
3.78747e-05
4.23529e-05
4.67512e-05
5.08386e-05
5.43841e-05
5.71883e-05
5.91103e-05
6.00826e-05
6.01124e-05
5.92664e-05
5.7666e-05
5.54676e-05
5.2848e-05
5.00876e-05
4.73083e-05
4.44783e-05
4.16519e-05
3.8903e-05
3.63244e-05
3.40093e-05
3.20126e-05
3.03313e-05
2.88958e-05
2.75965e-05
2.6308e-05
2.49098e-05
2.33244e-05
2.15457e-05
1.96562e-05
1.7811e-05
1.6171e-05
1.48639e-05
1.39601e-05
7.05418e-06
8.6701e-06
8.62776e-06
9.44537e-06
1.06407e-05
1.19988e-05
1.35816e-05
1.54191e-05
1.74765e-05
1.96912e-05
2.19888e-05
2.42821e-05
2.6468e-05
2.84389e-05
3.00937e-05
3.13519e-05
3.21605e-05
3.24973e-05
3.237e-05
3.18154e-05
3.08822e-05
2.9711e-05
2.84116e-05
2.70147e-05
2.55763e-05
2.41429e-05
2.27588e-05
2.14669e-05
2.02973e-05
1.92587e-05
1.83353e-05
1.74883e-05
1.6669e-05
1.58161e-05
1.48817e-05
1.38499e-05
1.27432e-05
1.16197e-05
1.05354e-05
9.60094e-06
8.87554e-06
3.42379e-06
4.17153e-06
4.16902e-06
4.54996e-06
5.09339e-06
5.71495e-06
6.44693e-06
7.30487e-06
8.27941e-06
9.35217e-06
1.04999e-05
1.16933e-05
1.28931e-05
1.40532e-05
1.5124e-05
1.60581e-05
1.68146e-05
1.73627e-05
1.76837e-05
1.77745e-05
1.76372e-05
1.73214e-05
1.68794e-05
1.63335e-05
1.57192e-05
1.50623e-05
1.43828e-05
1.36992e-05
1.30257e-05
1.23703e-05
1.17337e-05
1.11072e-05
1.04809e-05
9.84202e-06
9.1798e-06
8.49322e-06
7.79348e-06
7.11673e-06
6.47825e-06
5.91027e-06
5.48306e-06
1.75815e-06
2.12093e-06
2.12777e-06
2.31685e-06
2.58002e-06
2.88218e-06
3.24033e-06
3.66169e-06
4.14354e-06
4.6799e-06
5.26341e-06
5.8836e-06
6.52566e-06
7.17001e-06
7.79415e-06
8.37385e-06
8.88593e-06
9.30942e-06
9.6276e-06
9.83046e-06
9.90905e-06
9.87771e-06
9.75708e-06
9.55824e-06
9.30053e-06
8.99836e-06
8.66342e-06
8.30633e-06
7.93733e-06
7.56497e-06
7.19627e-06
6.83487e-06
6.48165e-06
6.13554e-06
5.79483e-06
5.45796e-06
5.11927e-06
4.78536e-06
4.46446e-06
4.1437e-06
3.89838e-06
9.54467e-07
1.13821e-06
1.1465e-06
1.24552e-06
1.3802e-06
1.5354e-06
1.72001e-06
1.93735e-06
2.18625e-06
2.46456e-06
2.76953e-06
3.09722e-06
3.44157e-06
3.79424e-06
4.14497e-06
4.48216e-06
4.7937e-06
5.06766e-06
5.29314e-06
5.46179e-06
5.56529e-06
5.60614e-06
5.5901e-06
5.52085e-06
5.40822e-06
5.26027e-06
5.0845e-06
4.88778e-06
4.67691e-06
4.45757e-06
4.23453e-06
4.01093e-06
3.78847e-06
3.56711e-06
3.34743e-06
3.13022e-06
2.91488e-06
2.70175e-06
2.49844e-06
2.29821e-06
2.12981e-06
5.4101e-07
6.37405e-07
6.44341e-07
6.98138e-07
7.69877e-07
8.53006e-07
9.52013e-07
1.06859e-06
1.20194e-06
1.35136e-06
1.51543e-06
1.69266e-06
1.88013e-06
2.07421e-06
2.26981e-06
2.46142e-06
2.64256e-06
2.80695e-06
2.94799e-06
3.06037e-06
3.13803e-06
3.18066e-06
3.19001e-06
3.1673e-06
3.11767e-06
3.0458e-06
2.95616e-06
2.85287e-06
2.73989e-06
2.62031e-06
2.49701e-06
2.37182e-06
2.24651e-06
2.12148e-06
1.99771e-06
1.87591e-06
1.75674e-06
1.63985e-06
1.52766e-06
1.41605e-06
1.32308e-06
3.1764e-07
3.69766e-07
3.75085e-07
4.05204e-07
4.44823e-07
4.90903e-07
5.45888e-07
6.10505e-07
6.84354e-07
7.67039e-07
8.57904e-07
9.56177e-07
1.06046e-06
1.16893e-06
1.27911e-06
1.3882e-06
1.49291e-06
1.58989e-06
1.6756e-06
1.74696e-06
1.80043e-06
1.83548e-06
1.85247e-06
1.85131e-06
1.83432e-06
1.80372e-06
1.76178e-06
1.71062e-06
1.65233e-06
1.58864e-06
1.52124e-06
1.45133e-06
1.38019e-06
1.30852e-06
1.237e-06
1.16625e-06
1.0967e-06
1.02866e-06
9.63839e-07
8.95316e-07
8.45551e-07
1.91961e-07
2.20832e-07
2.24731e-07
2.42054e-07
2.64598e-07
2.90875e-07
3.22272e-07
3.59043e-07
4.01039e-07
4.47951e-07
4.99513e-07
5.55198e-07
6.14358e-07
6.75927e-07
7.38699e-07
8.01094e-07
8.61453e-07
9.17883e-07
9.68524e-07
1.01154e-06
1.04489e-06
1.06817e-06
1.08142e-06
1.08421e-06
1.07759e-06
1.06277e-06
1.04091e-06
1.0133e-06
9.81102e-07
9.45467e-07
9.07295e-07
8.67532e-07
8.26925e-07
7.85995e-07
7.45115e-07
7.0499e-07
6.65799e-07
6.27347e-07
5.91264e-07
5.51576e-07
5.25625e-07
1.18802e-07
1.35153e-07
1.37962e-07
1.4818e-07
1.61352e-07
1.76734e-07
1.95093e-07
2.16517e-07
2.40933e-07
2.68141e-07
2.98011e-07
3.30205e-07
3.64382e-07
3.99909e-07
4.36155e-07
4.72212e-07
5.07205e-07
5.40054e-07
5.69771e-07
5.95303e-07
6.15493e-07
6.30181e-07
6.39377e-07
6.42701e-07
6.40648e-07
6.3384e-07
6.22889e-07
6.08477e-07
5.91197e-07
5.71654e-07
5.50371e-07
5.27929e-07
5.04731e-07
4.81058e-07
4.57247e-07
4.33707e-07
4.10656e-07
3.87958e-07
3.66807e-07
3.42506e-07
3.27985e-07
7.50035e-08
8.44227e-08
8.64292e-08
9.26124e-08
1.00496e-07
1.09724e-07
1.20689e-07
1.33439e-07
1.47904e-07
1.63992e-07
1.81595e-07
2.0054e-07
2.20595e-07
2.4142e-07
2.6262e-07
2.83705e-07
3.04153e-07
3.23377e-07
3.40797e-07
3.55841e-07
3.67822e-07
3.76727e-07
3.82575e-07
3.85078e-07
3.84492e-07
3.8113e-07
3.75334e-07
3.67463e-07
3.57875e-07
3.46908e-07
3.34919e-07
3.22192e-07
3.08987e-07
2.9546e-07
2.81858e-07
2.68409e-07
2.55265e-07
2.42184e-07
2.30171e-07
2.15446e-07
2.0795e-07
4.81478e-08
5.36667e-08
5.50839e-08
5.89004e-08
6.37328e-08
6.94002e-08
7.60882e-08
8.38307e-08
9.25564e-08
1.02236e-07
1.12775e-07
1.24098e-07
1.36035e-07
1.48415e-07
1.60971e-07
1.73447e-07
1.85507e-07
1.96843e-07
2.07096e-07
2.15957e-07
2.23013e-07
2.28309e-07
2.31888e-07
2.33546e-07
2.33422e-07
2.31683e-07
2.28531e-07
2.24151e-07
2.18775e-07
2.12587e-07
2.05795e-07
1.98523e-07
1.90938e-07
1.83129e-07
1.75227e-07
1.67338e-07
1.59557e-07
1.51708e-07
1.44584e-07
1.3534e-07
1.30772e-07
3.13635e-08
3.46119e-08
3.5614e-08
3.80137e-08
4.10368e-08
4.45905e-08
4.87591e-08
5.35512e-08
5.89147e-08
6.48316e-08
7.12406e-08
7.81003e-08
8.53042e-08
9.27529e-08
1.00281e-07
1.07739e-07
1.14923e-07
1.21658e-07
1.27729e-07
1.3296e-07
1.37108e-07
1.40235e-07
1.42388e-07
1.43433e-07
1.43437e-07
1.42506e-07
1.40748e-07
1.38284e-07
1.35236e-07
1.31725e-07
1.27831e-07
1.23641e-07
1.19246e-07
1.1471e-07
1.10072e-07
1.05423e-07
1.0082e-07
9.61439e-08
9.19687e-08
8.63469e-08
8.3568e-08
2.06817e-08
2.2612e-08
2.33065e-08
2.48262e-08
2.67524e-08
2.90208e-08
3.16745e-08
3.46971e-08
3.8058e-08
4.17325e-08
4.56936e-08
4.99042e-08
5.43118e-08
5.88442e-08
6.34118e-08
6.79131e-08
7.22339e-08
7.62596e-08
7.98756e-08
8.29739e-08
8.54108e-08
8.72448e-08
8.85179e-08
8.91382e-08
8.91435e-08
8.86076e-08
8.75846e-08
8.61601e-08
8.43948e-08
8.236e-08
8.0095e-08
7.76682e-08
7.51187e-08
7.24816e-08
6.97707e-08
6.70428e-08
6.4345e-08
6.1583e-08
5.91604e-08
5.58017e-08
5.40887e-08
1.37908e-08
1.4931e-08
1.54077e-08
1.6375e-08
1.76131e-08
1.90834e-08
2.08022e-08
2.27443e-08
2.48902e-08
2.72124e-08
2.96992e-08
3.23197e-08
3.5051e-08
3.78408e-08
4.06442e-08
4.33901e-08
4.60165e-08
4.84456e-08
5.06142e-08
5.2455e-08
5.38873e-08
5.49578e-08
5.57028e-08
5.60597e-08
5.60512e-08
5.57221e-08
5.51095e-08
5.4263e-08
5.322e-08
5.20226e-08
5.07014e-08
4.92894e-08
4.78096e-08
4.62696e-08
4.46834e-08
4.30785e-08
4.14958e-08
3.98522e-08
3.84337e-08
3.64274e-08
3.53433e-08
9.28646e-09
9.96059e-09
1.02746e-08
1.08916e-08
1.16932e-08
1.26542e-08
1.37808e-08
1.50499e-08
1.64425e-08
1.79367e-08
1.95219e-08
2.11781e-08
2.28907e-08
2.46306e-08
2.63708e-08
2.80683e-08
2.9684e-08
3.1169e-08
3.24828e-08
3.35871e-08
3.44353e-08
3.50639e-08
3.55052e-08
3.57169e-08
3.57113e-08
3.55078e-08
3.514e-08
3.46305e-08
3.40083e-08
3.32913e-08
3.25062e-08
3.16625e-08
3.07828e-08
2.98635e-08
2.89192e-08
2.79581e-08
2.70143e-08
2.6022e-08
2.51744e-08
2.39793e-08
2.32439e-08
6.3116e-09
6.7044e-09
6.91064e-09
7.30308e-09
7.81984e-09
8.45153e-09
9.19441e-09
1.00335e-08
1.09494e-08
1.19272e-08
1.29527e-08
1.40155e-08
1.51032e-08
1.62021e-08
1.72943e-08
1.83574e-08
1.93643e-08
2.0286e-08
2.10969e-08
2.17716e-08
2.22797e-08
2.26518e-08
2.29165e-08
2.30411e-08
2.30391e-08
2.29188e-08
2.26988e-08
2.23875e-08
2.20077e-08
2.15676e-08
2.10876e-08
2.05735e-08
2.00405e-08
1.94856e-08
1.89168e-08
1.83385e-08
1.77708e-08
1.7169e-08
1.66566e-08
1.59549e-08
1.54134e-08
4.32816e-09
4.55403e-09
4.68611e-09
4.93715e-09
5.2704e-09
5.68435e-09
6.17571e-09
6.73324e-09
7.34129e-09
7.98903e-09
8.66234e-09
9.35388e-09
1.00534e-08
1.07552e-08
1.14476e-08
1.21209e-08
1.27575e-08
1.33408e-08
1.38512e-08
1.42719e-08
1.45813e-08
1.48028e-08
1.49595e-08
1.50313e-08
1.50245e-08
1.49475e-08
1.48098e-08
1.46182e-08
1.43818e-08
1.41101e-08
1.38128e-08
1.34973e-08
1.31693e-08
1.28327e-08
1.24877e-08
1.21398e-08
1.17971e-08
1.14334e-08
1.11215e-08
1.07144e-08
1.03097e-08
2.98871e-09
3.118e-09
3.20678e-09
3.36725e-09
3.58352e-09
3.85564e-09
4.17977e-09
4.54984e-09
4.95508e-09
5.38659e-09
5.83376e-09
6.28914e-09
6.74504e-09
7.19755e-09
7.64085e-09
8.06998e-09
8.47736e-09
8.85237e-09
9.1812e-09
9.45323e-09
9.6505e-09
9.78724e-09
9.88085e-09
9.92026e-09
9.90799e-09
9.85472e-09
9.76429e-09
9.64311e-09
9.49349e-09
9.32358e-09
9.13523e-09
8.93636e-09
8.72921e-09
8.51928e-09
8.30478e-09
8.09063e-09
7.88101e-09
7.65924e-09
7.46895e-09
7.23433e-09
6.93418e-09
2.07654e-09
2.1513e-09
2.21288e-09
2.31945e-09
2.46257e-09
2.6408e-09
2.85472e-09
3.0993e-09
3.36919e-09
3.65682e-09
3.95551e-09
4.25794e-09
4.5588e-09
4.85335e-09
5.13926e-09
5.41427e-09
5.67516e-09
5.91764e-09
6.13443e-09
6.31609e-09
6.44842e-09
6.54066e-09
6.60167e-09
6.62472e-09
6.61233e-09
6.57314e-09
6.50949e-09
6.42879e-09
6.3317e-09
6.22337e-09
6.10343e-09
5.97619e-09
5.84329e-09
5.70803e-09
5.57027e-09
5.43258e-09
5.29965e-09
5.1604e-09
5.03984e-09
4.90486e-09
4.68534e-09
1.44752e-09
1.49291e-09
1.53898e-09
1.61296e-09
1.70963e-09
1.82839e-09
1.97001e-09
2.13193e-09
2.31127e-09
2.50299e-09
2.70269e-09
2.90462e-09
3.10463e-09
3.29835e-09
3.48405e-09
3.66042e-09
3.82713e-09
3.98277e-09
4.12511e-09
4.24834e-09
4.34213e-09
4.41003e-09
4.45767e-09
4.47712e-09
4.46947e-09
4.43968e-09
4.39329e-09
4.33571e-09
4.2702e-09
4.19833e-09
4.12134e-09
4.03943e-09
3.95451e-09
3.86646e-09
3.77647e-09
3.68501e-09
3.59677e-09
3.50437e-09
3.42143e-09
3.34424e-09
3.1795e-09
1.01044e-09
1.03921e-09
1.07526e-09
1.12928e-09
1.1973e-09
1.27884e-09
1.37431e-09
1.48299e-09
1.60267e-09
1.73091e-09
1.86448e-09
1.99978e-09
2.13307e-09
2.26148e-09
2.38257e-09
2.49585e-09
2.60151e-09
2.69995e-09
2.79111e-09
2.87381e-09
2.94116e-09
2.99457e-09
3.03667e-09
3.05927e-09
3.06041e-09
3.04266e-09
3.00983e-09
2.96656e-09
2.91719e-09
2.86472e-09
2.81114e-09
2.7567e-09
2.70204e-09
2.64625e-09
2.58904e-09
2.53011e-09
2.47231e-09
2.41154e-09
2.35286e-09
2.31118e-09
2.18484e-09
7.04118e-10
7.23455e-10
7.52058e-10
7.92669e-10
8.42884e-10
9.01108e-10
9.67961e-10
1.04251e-09
1.12395e-09
1.21069e-09
1.30082e-09
1.39187e-09
1.48125e-09
1.56643e-09
1.64589e-09
1.71863e-09
1.7848e-09
1.84558e-09
1.90219e-09
1.9546e-09
2.0003e-09
2.04082e-09
2.07739e-09
2.10247e-09
2.11334e-09
2.10831e-09
2.08934e-09
2.05853e-09
2.02091e-09
1.97977e-09
1.93888e-09
1.89921e-09
1.86176e-09
1.82553e-09
1.78961e-09
1.75283e-09
1.71594e-09
1.67664e-09
1.63433e-09
1.60933e-09
1.51717e-09
4.89065e-10
5.01884e-10
5.23934e-10
5.55305e-10
5.93025e-10
6.36503e-10
6.84833e-10
7.37879e-10
7.94911e-10
8.55223e-10
9.1732e-10
9.79691e-10
1.04047e-09
1.09785e-09
1.15039e-09
1.19719e-09
1.23845e-09
1.2747e-09
1.30759e-09
1.33822e-09
1.3661e-09
1.39304e-09
1.42075e-09
1.44405e-09
1.4602e-09
1.46613e-09
1.46118e-09
1.44501e-09
1.42033e-09
1.38991e-09
1.35768e-09
1.32602e-09
1.29677e-09
1.27012e-09
1.24508e-09
1.22045e-09
1.19551e-09
1.16924e-09
1.13785e-09
1.1179e-09
1.05389e-09
3.38178e-10
3.46417e-10
3.62802e-10
3.86029e-10
4.14856e-10
4.47484e-10
4.83345e-10
5.22251e-10
5.63573e-10
6.06869e-10
6.51157e-10
6.95434e-10
7.38274e-10
7.78346e-10
8.14302e-10
8.45356e-10
8.71313e-10
8.92591e-10
9.10414e-10
9.26052e-10
9.40123e-10
9.54933e-10
9.72038e-10
9.89233e-10
1.00441e-09
1.01545e-09
1.0201e-09
1.01698e-09
1.00559e-09
9.87129e-10
9.63799e-10
9.38538e-10
9.13788e-10
8.91043e-10
8.70306e-10
8.50888e-10
8.3181e-10
8.12605e-10
7.88964e-10
7.71719e-10
7.24191e-10
2.33172e-10
2.37889e-10
2.49239e-10
2.66108e-10
2.87104e-10
3.11401e-10
3.38162e-10
3.66974e-10
3.97556e-10
4.29346e-10
4.6187e-10
4.94437e-10
5.26068e-10
5.55707e-10
5.82194e-10
6.04577e-10
6.22328e-10
6.35498e-10
6.44875e-10
6.5141e-10
6.56401e-10
6.61908e-10
6.69551e-10
6.78881e-10
6.89273e-10
6.9965e-10
7.08347e-10
7.13626e-10
7.1372e-10
7.07726e-10
6.95755e-10
6.79209e-10
6.60242e-10
6.40907e-10
6.22611e-10
6.05768e-10
5.90028e-10
5.75225e-10
5.57229e-10
5.44348e-10
5.09451e-10
1.60258e-10
1.62798e-10
1.70436e-10
1.81915e-10
1.96801e-10
2.14159e-10
2.33483e-10
2.54549e-10
2.76949e-10
3.00371e-10
3.24509e-10
3.48897e-10
3.72956e-10
3.95862e-10
4.16726e-10
4.34653e-10
4.48874e-10
4.58966e-10
4.65017e-10
4.67652e-10
4.67787e-10
4.67268e-10
4.67467e-10
4.69027e-10
4.72185e-10
4.76927e-10
4.82557e-10
4.88141e-10
4.92217e-10
4.93468e-10
4.90613e-10
4.83284e-10
4.71879e-10
4.57773e-10
4.42601e-10
4.27822e-10
4.14135e-10
4.02237e-10
3.88066e-10
3.81841e-10
3.55361e-10
1.10759e-10
1.11996e-10
1.17106e-10
1.24847e-10
1.34849e-10
1.46572e-10
1.59743e-10
1.74095e-10
1.89538e-10
2.05981e-10
2.23363e-10
2.414e-10
2.59771e-10
2.77824e-10
2.94901e-10
3.10152e-10
3.22848e-10
3.32472e-10
3.3863e-10
3.41599e-10
3.41799e-10
3.4047e-10
3.38712e-10
3.37504e-10
3.37415e-10
3.38902e-10
3.41899e-10
3.46134e-10
3.50979e-10
3.55598e-10
3.58852e-10
3.59626e-10
3.57057e-10
3.50929e-10
3.41768e-10
3.30733e-10
3.1912e-10
3.08593e-10
2.96561e-10
2.933e-10
2.75117e-10
7.67347e-11
7.76458e-11
8.13441e-11
8.6673e-11
9.34729e-11
1.01319e-10
1.09908e-10
1.19033e-10
1.28692e-10
1.38923e-10
1.49879e-10
1.61674e-10
1.74362e-10
1.87755e-10
2.01469e-10
2.14805e-10
2.26956e-10
2.37038e-10
2.44305e-10
2.48361e-10
2.49113e-10
2.47074e-10
2.43292e-10
2.38711e-10
2.34171e-10
2.30335e-10
2.27545e-10
2.25895e-10
2.25334e-10
2.25651e-10
2.26576e-10
2.27581e-10
2.28075e-10
2.27309e-10
2.24762e-10
2.20284e-10
2.14175e-10
2.07706e-10
1.99146e-10
1.98989e-10
1.78829e-10
5.34923e-11
5.44349e-11
5.72846e-11
6.10127e-11
6.55837e-11
7.08809e-11
7.66751e-11
8.27877e-11
8.90458e-11
9.53392e-11
1.01643e-10
1.08047e-10
1.14758e-10
1.2201e-10
1.30038e-10
1.38951e-10
1.48669e-10
1.58897e-10
1.69111e-10
1.78702e-10
1.86923e-10
1.93263e-10
1.97736e-10
2.00271e-10
2.01163e-10
2.00932e-10
2.00135e-10
1.99225e-10
1.98501e-10
1.98092e-10
1.98019e-10
1.98166e-10
1.98359e-10
1.98233e-10
1.97335e-10
1.95184e-10
1.91504e-10
1.86497e-10
1.79177e-10
1.75287e-10
1.59791e-10
3.79685e-11
3.92535e-11
4.15836e-11
4.40033e-11
4.65924e-11
4.94475e-11
5.26941e-11
5.64361e-11
6.07436e-11
6.55394e-11
7.06589e-11
7.58508e-11
8.08617e-11
8.54693e-11
8.95312e-11
9.30108e-11
9.59285e-11
9.83509e-11
1.00286e-10
1.01755e-10
1.02557e-10
1.02661e-10
1.02218e-10
1.01262e-10
9.98912e-11
9.82407e-11
9.6503e-11
9.48444e-11
9.33887e-11
9.22026e-11
9.13171e-11
9.07478e-11
9.05168e-11
9.06332e-11
9.10506e-11
9.16538e-11
9.21569e-11
9.2578e-11
9.12687e-11
9.45603e-11
7.66632e-11
2.73164e-11
2.90822e-11
3.15323e-11
3.36154e-11
3.51675e-11
3.62384e-11
3.69603e-11
3.75412e-11
3.82153e-11
3.92248e-11
4.08275e-11
4.32939e-11
4.68834e-11
5.1826e-11
5.82588e-11
6.6231e-11
7.56239e-11
8.61981e-11
9.75787e-11
1.09243e-10
1.20804e-10
1.31711e-10
1.41526e-10
1.49691e-10
1.55983e-10
1.60354e-10
1.62945e-10
1.63987e-10
1.63785e-10
1.62624e-10
1.60712e-10
1.58171e-10
1.55055e-10
1.51365e-10
1.47094e-10
1.42246e-10
1.36916e-10
1.31117e-10
1.24785e-10
1.18201e-10
1.13547e-10
2.02421e-11
2.23446e-11
2.49966e-11
2.74161e-11
2.93439e-11
3.06427e-11
3.11939e-11
3.09881e-11
3.01186e-11
2.87873e-11
2.72451e-11
2.57741e-11
2.46027e-11
2.38919e-11
2.36973e-11
2.39806e-11
2.46305e-11
2.55e-11
2.64526e-11
2.74076e-11
2.82439e-11
2.8953e-11
2.94847e-11
2.99744e-11
3.05016e-11
3.10901e-11
3.17454e-11
3.24538e-11
3.31762e-11
3.387e-11
3.4488e-11
3.50189e-11
3.54669e-11
3.59005e-11
3.64187e-11
3.71779e-11
3.82588e-11
3.99154e-11
4.12529e-11
4.55002e-11
4.18149e-11
1.57429e-11
1.72418e-11
1.86726e-11
2.0546e-11
2.40827e-11
3.05191e-11
4.05615e-11
5.42056e-11
7.08161e-11
8.92878e-11
1.0834e-10
1.26665e-10
1.43206e-10
1.57144e-10
1.68072e-10
1.75848e-10
1.80697e-10
1.82963e-10
1.8317e-10
1.81755e-10
1.79298e-10
1.77573e-10
1.75612e-10
1.73857e-10
1.7247e-10
1.71487e-10
1.70887e-10
1.70584e-10
1.70441e-10
1.70271e-10
1.69863e-10
1.68979e-10
1.67401e-10
1.64898e-10
1.61426e-10
1.57e-10
1.51747e-10
1.4553e-10
1.39352e-10
1.34314e-10
1.23492e-10
0.906125
1.32368
1.51013
1.54927
1.56541
1.48719
1.37106
1.26123
1.13096
1.0022
0.913431
0.8296
0.762832
0.715654
0.632441
0.562771
0.476011
0.410649
0.351225
0.297185
0.251218
0.207642
0.167897
0.134802
0.108067
0.0842553
0.0669575
0.0510919
0.0372182
0.025012
0.0158099
0.00841028
0.00344356
0.000806291
0.000171499
0.00177341
0.00525697
0.0103521
0.0167272
0.0237475
0.0310562
0.0381328
0.044353
0.0499354
0.0537273
0.0565779
0.0579197
0.0577997
0.0564161
0.0539966
0.050753
0.0468269
0.042488
0.0378889
0.0332519
0.0288515
0.0246219
0.0207505
0.017249
0.0141453
0.0114344
0.00908313
0.00707607
0.00538295
0.00397716
0.00283776
0.0019399
0.00126163
0.000773691
0.000443059
0.00023466
0.000111892
5.08834e-05
1.03264e-05
13.7353
7.92213
5.73907
4.77386
4.17307
3.64959
3.15474
2.72909
2.34114
1.99892
1.74
1.52452
1.3454
1.22215
1.08952
0.979801
0.857207
0.751517
0.656903
0.566873
0.497834
0.436176
0.378916
0.328353
0.284521
0.243107
0.211199
0.182702
0.155211
0.12846
0.104925
0.0827331
0.0628535
0.0461851
0.0311735
0.0191181
0.010208
0.00414489
0.000870543
5.57198e-05
0.00134499
0.00408957
0.00817175
0.0128008
0.0175776
0.022257
0.0261309
0.0294986
0.032135
0.0338209
0.0345927
0.034545
0.0338048
0.0324656
0.0307184
0.028707
0.0264756
0.0242083
0.0219427
0.0197557
0.0176824
0.0157281
0.0139066
0.0122041
0.0106056
0.00910315
0.00768234
0.00634801
0.00510811
0.00397789
0.00298563
0.0021132
0.00151397
0.000746656
9.73093
7.02986
5.6313
4.85628
4.21603
3.68537
3.20138
2.7609
2.36832
2.02393
1.74592
1.53023
1.33926
1.1899
1.06676
0.960696
0.866782
0.776045
0.697405
0.622321
0.559441
0.512181
0.471439
0.435451
0.401088
0.364098
0.331462
0.302317
0.272929
0.243
0.214188
0.185813
0.157797
0.13278
0.108277
0.0857443
0.0660743
0.0489284
0.0345048
0.0225915
0.0138219
0.0077019
0.00319054
0.000847835
2.17862e-05
0.000426707
0.00157989
0.00330576
0.00538475
0.00745993
0.00933639
0.0109479
0.0122052
0.0131022
0.0136783
0.0138704
0.013806
0.0135329
0.0131022
0.0125744
0.0119885
0.0113886
0.0107988
0.0102298
0.00968942
0.00917252
0.00867062
0.00816726
0.00764453
0.00707983
0.00648103
0.00575447
0.00518203
0.00400705
5.94857
4.05687
3.03412
2.50312
2.09583
1.78994
1.53885
1.3134
1.11471
0.94127
0.799248
0.697908
0.607812
0.531819
0.475218
0.425691
0.391217
0.358188
0.332529
0.310263
0.287447
0.277134
0.273274
0.275977
0.280492
0.281935
0.278194
0.272689
0.263502
0.251318
0.236744
0.220277
0.201029
0.181988
0.161933
0.141547
0.122192
0.103688
0.0864842
0.0704969
0.0565251
0.0449536
0.0341254
0.0253618
0.0180055
0.012228
0.00806872
0.00488
0.00258161
0.0011478
0.00036901
4.20164e-05
2.35278e-05
0.000193745
0.000470303
0.000761306
0.00104536
0.00128981
0.0014861
0.00163473
0.00173728
0.00180977
0.00186114
0.00190052
0.00194097
0.0019877
0.00205097
0.00213317
0.00223645
0.00235871
0.00250128
0.00266034
0.00275645
0.0031515
2.26527
1.28846
0.78711
0.557056
0.41362
0.321048
0.256919
0.20573
0.162547
0.125741
0.0970637
0.0784431
0.0641763
0.0534493
0.0458573
0.0394004
0.0355615
0.0325016
0.0309923
0.0303014
0.0290034
0.0295988
0.0316139
0.036574
0.0450047
0.0571232
0.0704818
0.0851063
0.0987749
0.110595
0.119514
0.125769
0.128208
0.12806
0.125599
0.120575
0.114046
0.106163
0.0974724
0.0883063
0.0788079
0.0701053
0.0613881
0.053071
0.0453913
0.0382086
0.0321098
0.0266709
0.0217377
0.0175335
0.0140684
0.0111902
0.00885874
0.00697753
0.00546431
0.00432544
0.00342896
0.00274141
0.00221266
0.00180445
0.00149254
0.00124707
0.00105213
0.000895014
0.000761813
0.000646554
0.000541
0.000442363
0.000349337
0.000260833
0.000182065
0.000101465
6.49245e-05
1.41458e-06
0.268862
0.116847
0.0508716
0.0271727
0.015779
0.00971978
0.00641393
0.00425608
0.002573
0.00131448
0.000557223
0.000225287
9.72373e-05
5.64344e-05
3.52915e-05
2.10484e-05
1.14577e-05
6.58177e-06
4.90324e-06
5.28627e-06
5.44859e-06
6.48474e-06
8.03063e-06
1.43858e-05
4.7177e-05
0.000232683
0.000775835
0.00187744
0.00373064
0.00653594
0.0103176
0.015106
0.0205139
0.0262188
0.0320087
0.0371854
0.0415792
0.0449557
0.0472516
0.04873
0.0487523
0.0481902
0.0470618
0.0450215
0.0427612
0.039867
0.0369716
0.0340803
0.0310761
0.0281255
0.0253418
0.0227357
0.0203322
0.0181526
0.0161636
0.0144146
0.012865
0.0114943
0.010291
0.00922718
0.00829092
0.00745864
0.00671324
0.00604421
0.0054339
0.00487328
0.00435307
0.00386699
0.00341319
0.00298573
0.00259526
0.00220297
0.00191602
0.00146312
0.00376536
0.000725585
0.000116143
2.44285e-05
6.29317e-06
2.04662e-06
1.70183e-06
2.62764e-06
3.42768e-06
3.29379e-06
2.19897e-06
8.82243e-07
1.20253e-07
6.58288e-07
2.15269e-06
3.91222e-06
4.13698e-06
3.08557e-06
1.19351e-06
8.00136e-08
7.5517e-07
2.95635e-06
4.59422e-06
4.6101e-06
2.87538e-06
1.07671e-06
1.9864e-07
4.09287e-07
7.95577e-07
1.60978e-06
5.92393e-06
3.15614e-05
0.000128479
0.000344643
0.000732273
0.00132967
0.00217197
0.0032564
0.00455819
0.00608499
0.00758306
0.00911773
0.0106979
0.0119913
0.0132185
0.0140354
0.0145909
0.0149183
0.0149829
0.0148032
0.0144068
0.0138604
0.0131779
0.0124298
0.0116041
0.010711
0.00981707
0.00890448
0.00800642
0.00712753
0.00627671
0.00547032
0.00470907
0.00400403
0.0033609
0.00278195
0.00227205
0.00182972
0.00145364
0.00113974
0.000883266
0.000676642
0.000519269
0.000356872
8.04155e-05
3.57186e-05
1.60552e-05
1.04677e-05
6.77663e-06
3.2115e-06
2.82079e-06
1.06758e-05
2.36065e-05
3.09196e-05
2.69737e-05
1.59909e-05
5.11084e-06
1.57208e-06
4.75244e-06
1.02422e-05
1.20004e-05
1.01341e-05
5.95517e-06
2.28642e-06
1.85506e-06
4.08597e-06
6.72883e-06
8.17405e-06
7.42051e-06
5.35466e-06
2.73767e-06
1.25503e-06
7.60968e-07
9.06759e-07
1.18878e-06
1.3048e-06
1.2208e-06
1.09614e-06
9.40134e-07
8.26779e-07
8.85378e-07
1.42685e-06
3.77071e-06
1.41585e-05
4.30739e-05
9.96182e-05
0.000189543
0.000302205
0.000448614
0.000606416
0.000774909
0.000946696
0.00110949
0.00124966
0.00135491
0.0014247
0.00145025
0.00143954
0.00138771
0.0012962
0.0011822
0.0010469
0.000903078
0.000757789
0.00061799
0.000490739
0.000378575
0.000284101
0.000207476
0.000147349
0.000101902
6.85166e-05
4.4733e-05
2.82988e-05
1.73138e-05
1.02672e-05
6.02797e-06
2.93803e-06
0.000256
0.000145499
6.20331e-05
2.94501e-05
1.6605e-05
8.94584e-06
5.3867e-06
1.08401e-05
2.34626e-05
3.31773e-05
3.32735e-05
2.48197e-05
1.3067e-05
5.29421e-06
3.38999e-06
5.07901e-06
6.59292e-06
6.40548e-06
4.49065e-06
2.11738e-06
1.16067e-06
1.78861e-06
3.36934e-06
4.86292e-06
5.28648e-06
4.58911e-06
2.9454e-06