/*--------------------------------*- C++ -*----------------------------------*\
| =========                 |                                                 |
| \\      /  F ield         | OpenFOAM: The Open Source CFD Toolbox           |
|  \\    /   O peration     | Version:  2312                                  |
|   \\  /    A nd           | Website:  www.openfoam.com                      |
|    \\/     M anipulation  |                                                 |
\*---------------------------------------------------------------------------*/
FoamFile
{
    version     2.0;
    format      ascii;
    arch        "LSB;label=32;scalar=64";
    class       volVectorField;
    location    "50";
    object      U;
}
// * * * * * * * * * * * * * * * * * * * * * * * * * * * * * * * * * * * * * //

dimensions      [0 1 -1 0 0 0 0];

internalField   nonuniform List<vector> 
11040
(
(-1.30329 7.90772 -4.52543e-19)
(0.0617743 2.39808 -2.90394e-18)
(-1.35673 -1.93968 -3.83619e-17)
(-0.570408 -0.813488 -7.72193e-18)
(0.415922 -0.57534 -2.94681e-18)
(1.55329 -0.365144 -9.30457e-18)
(2.82595 0.327508 1.64392e-17)
(2.76612 0.798227 1.46558e-17)
(0.714758 0.914906 4.40245e-18)
(-0.528389 0.911076 1.44597e-18)
(0.20894 0.808181 -1.7755e-17)
(1.19847 0.728255 2.39328e-18)
(1.5325 0.535179 7.8002e-18)
(1.02047 0.296364 8.19539e-18)
(0.452388 0.224233 -9.24737e-18)
(0.330722 0.202789 1.4742e-17)
(-0.581563 0.165545 5.67554e-18)
(-1.98789 0.182941 -1.05551e-17)
(-3.37561 0.207251 -3.35889e-19)
(-4.59376 0.273812 1.50803e-18)
(-5.65721 0.380409 -1.70799e-18)
(-6.53285 0.49839 -6.35247e-18)
(-7.24064 0.60461 6.77319e-18)
(-7.83612 0.698778 -7.34275e-18)
(-8.31873 0.782973 7.91532e-18)
(-8.67923 0.852443 1.47935e-17)
(-8.88303 0.912178 6.54262e-18)
(-8.95656 0.95565 6.33713e-18)
(-8.86934 0.987883 6.73538e-18)
(-8.67731 1.00616 8.83116e-18)
(-8.3962 1.0169 -1.53163e-17)
(-8.03876 1.0156 -1.13561e-17)
(-7.61779 1.00507 -3.30358e-17)
(-7.13747 0.980805 -1.79338e-17)
(-6.60576 0.940054 1.75193e-18)
(-6.0209 0.875574 -2.27761e-17)
(-5.36562 0.778081 5.49108e-19)
(-4.57763 0.63178 -1.27474e-17)
(-3.53685 0.406036 1.76293e-17)
(-2.26326 0.0580002 1.54164e-17)
(-1.10907 -0.316216 -6.17371e-18)
(0.10868 9.50392 2.07157e-19)
(1.22976 7.19301 -4.25198e-19)
(0.120993 2.00556 1.21854e-17)
(-1.10269 -0.696065 2.28925e-18)
(0.00792933 -0.958236 -1.29695e-19)
(1.02666 -1.08346 2.43038e-18)
(2.09639 -0.416536 -7.87398e-19)
(1.38684 0.382436 -9.12188e-18)
(-0.922654 0.425626 3.5524e-19)
(-1.112 0.180969 -3.10164e-18)
(-0.250306 0.111936 4.05257e-18)
(0.685605 0.185076 -1.52534e-17)
(1.09834 0.274864 -1.45642e-18)
(0.623014 0.263316 -1.46467e-17)
(-0.165348 0.166735 6.6078e-18)
(-0.784735 0.0955099 -2.04825e-18)
(-2.2987 0.0478 -2.67115e-18)
(-3.96551 0.0443464 -2.53391e-18)
(-5.38784 0.0489804 -4.17419e-19)
(-6.50803 0.110587 1.99011e-19)
(-7.40784 0.235748 8.85904e-19)
(-8.12662 0.39351 2.94452e-18)
(-8.69614 0.547967 -5.00215e-18)
(-9.14861 0.694494 -1.24096e-18)
(-9.46253 0.827835 -1.64059e-18)
(-9.64309 0.934462 3.5676e-18)
(-9.69783 1.02704 2.28293e-18)
(-9.63654 1.08849 -1.31961e-17)
(-9.48917 1.13918 -1.07476e-18)
(-9.24279 1.16232 7.8091e-18)
(-8.90755 1.17301 9.71754e-18)
(-8.49608 1.16252 1.94452e-17)
(-8.02182 1.14167 1.56611e-17)
(-7.48932 1.10272 7.39501e-18)
(-6.90598 1.04506 -3.25428e-18)
(-6.27226 0.959455 1.21694e-17)
(-5.57633 0.838266 -8.78684e-18)
(-4.7511 0.672877 6.0562e-18)
(-3.68436 0.429954 -2.15714e-18)
(-2.39899 0.0320293 -2.6884e-18)
(-1.1671 -0.425009 5.77466e-18)
(0.728343 8.31888 -1.14988e-20)
(1.86844 9.08312 1.00829e-18)
(1.76085 6.33729 -2.47093e-18)
(0.317853 2.09351 -5.58724e-18)
(0.0668252 -0.447742 6.01251e-19)
(0.741196 -1.36946 -1.8246e-18)
(0.810429 -0.863733 -4.50215e-18)
(-0.265045 -0.038929 -4.19681e-18)
(-1.56821 0.00687651 3.28881e-18)
(-1.58324 -0.222281 1.37833e-19)
(-0.846032 -0.313343 1.71927e-18)
(0.0334878 -0.128285 6.60271e-18)
(0.448258 0.136319 -7.37737e-18)
(-0.00255787 0.253732 8.5291e-18)
(-0.895117 0.24029 -4.62441e-18)
(-1.99372 0.253277 -1.58668e-18)
(-3.65965 0.2486 6.7561e-19)
(-5.10608 0.22615 9.99107e-19)
(-6.21445 0.204574 9.77654e-20)
(-7.07418 0.236104 -1.0303e-20)
(-7.79477 0.331565 -2.38324e-18)
(-8.40501 0.463831 -2.27712e-18)
(-8.90534 0.592129 5.91468e-19)
(-9.30756 0.712083 -3.94903e-19)
(-9.59309 0.820863 3.77632e-18)
(-9.7614 0.902745 -9.00288e-18)
(-9.80688 0.973713 -6.87074e-18)
(-9.73964 1.01298 1.03752e-17)
(-9.56677 1.04573 2.51679e-18)
(-9.29869 1.05026 -1.55733e-18)
(-8.94952 1.04662 -1.00636e-17)
(-8.53016 1.0227 4.1838e-18)
(-8.05375 0.991868 -9.26267e-18)
(-7.52454 0.944344 -1.19846e-17)
(-6.95061 0.87876 2.54546e-18)
(-6.33421 0.783198 6.23079e-18)
(-5.66699 0.6486 8.72039e-18)
(-4.88732 0.467961 -8.201e-18)
(-3.89841 0.21154 -1.42271e-18)
(-2.73146 -0.193184 -1.59204e-18)
(-1.62207 -0.634084 -3.37191e-18)
(0.96134 7.43871 -3.82086e-20)
(1.82918 8.77187 -1.63211e-19)
(2.5618 8.6208 1.05314e-18)
(2.03963 5.82459 2.49508e-18)
(1.16267 2.18365 -6.18394e-19)
(0.889608 -0.59624 -4.69289e-18)
(0.160402 -0.989146 1.38659e-18)
(-0.9524 -0.153215 1.88453e-18)
(-1.87221 -0.139389 -1.7105e-18)
(-2.00717 -0.458505 2.03863e-18)
(-1.47832 -0.672922 -4.01493e-18)
(-0.69401 -0.478759 5.84881e-19)
(-0.290862 -0.0408384 1.03201e-18)
(-0.749687 0.235262 -6.4695e-18)
(-1.76332 0.352261 -2.61649e-18)
(-3.10029 0.486278 1.29809e-18)
(-4.54748 0.517475 2.31725e-18)
(-5.59488 0.45217 1.09978e-18)
(-6.40712 0.387807 -1.0657e-19)
(-7.10731 0.384415 1.23846e-19)
(-7.75462 0.450022 6.57688e-19)
(-8.33263 0.557971 2.26517e-18)
(-8.81705 0.668143 8.81574e-19)
(-9.20938 0.770245 1.72734e-18)
(-9.49027 0.860523 2.86547e-18)
(-9.65558 0.923946 1.40656e-17)
(-9.69945 0.975786 -1.09054e-18)
(-9.63176 0.996358 -2.01289e-18)
(-9.45991 1.01006 -6.95473e-18)
(-9.19625 0.997524 -5.96353e-18)
(-8.85459 0.978257 8.20493e-18)
(-8.44657 0.940291 -6.8933e-18)
(-7.98541 0.897057 1.79664e-17)
(-7.47757 0.83887 4.64852e-18)
(-6.93207 0.763882 3.57419e-18)
(-6.35396 0.658447 7.69515e-19)
(-5.73753 0.511712 -1.36847e-19)
(-5.0297 0.315452 -7.68389e-19)
(-4.15429 0.0399987 1.74516e-18)
(-3.15631 -0.375145 -2.0956e-18)
(-2.22001 -0.7884 6.1478e-19)
(1.54404 7.08293 4.75768e-20)
(2.03862 7.84255 -9.55414e-21)
(2.73378 8.78581 -7.97986e-19)
(3.0338 8.21141 -1.47004e-18)
(2.56878 5.65512 1.92783e-18)
(1.71886 2.09617 -1.83821e-19)
(0.479742 -0.522598 1.1314e-18)
(-0.863088 -0.0125828 2.30309e-18)
(-1.90507 -0.0180475 -5.48275e-19)
(-2.35101 -0.45107 -1.06491e-18)
(-2.13886 -0.860031 -1.24425e-18)
(-1.51402 -0.793504 -1.69556e-20)
(-1.14162 -0.265865 -5.48526e-20)
(-1.62208 0.207615 3.93601e-18)
(-2.67398 0.480634 1.92361e-18)
(-3.89055 0.699222 5.08621e-20)
(-4.91539 0.730503 -1.026e-18)
(-5.62553 0.627527 1.20545e-18)
(-6.28035 0.535772 -1.5294e-19)
(-6.92905 0.509621 5.68849e-19)
(-7.56731 0.55336 -1.24127e-18)
(-8.14805 0.639442 -1.42807e-19)
(-8.63798 0.731043 2.24791e-18)
(-9.036 0.814876 -2.62623e-18)
(-9.32437 0.884443 -6.45153e-18)
(-9.49737 0.927465 -3.55427e-18)
(-9.54987 0.956175 7.82428e-19)
(-9.49027 0.956611 -6.40293e-18)
(-9.32646 0.948994 1.61615e-19)
(-9.07171 0.919184 5.89619e-18)
(-8.73988 0.882563 -4.56422e-18)
(-8.34409 0.830414 9.38389e-19)
(-7.89834 0.773134 -1.3119e-17)
(-7.41211 0.703025 -6.18121e-18)
(-6.89632 0.617157 -3.48181e-18)
(-6.3595 0.502591 -3.1554e-18)
(-5.79945 0.348258 1.697e-18)
(-5.17407 0.145564 -9.50057e-20)
(-4.42977 -0.134575 1.03445e-18)
(-3.62265 -0.540305 3.00308e-18)
(-2.88049 -0.919182 -1.81079e-18)
(1.96128 6.72863 -1.18016e-19)
(2.37384 7.22567 -6.92449e-21)
(2.79446 8.00323 1.93421e-19)
(3.29644 8.65266 4.3859e-19)
(3.43596 8.02486 -4.01058e-19)
(2.89671 5.58686 2.22875e-19)
(1.52754 2.06577 7.66793e-19)
(-0.160625 0.428263 1.15364e-19)
(-1.5481 0.396511 -3.21307e-20)
(-2.46476 -0.140518 2.85531e-18)
(-2.68898 -0.809005 1.99889e-18)
(-2.36921 -0.999873 -1.05711e-18)
(-2.03757 -0.468893 -9.58322e-19)
(-2.46901 0.178008 4.66026e-18)
(-3.38557 0.618965 -3.21649e-18)
(-4.2391 0.890144 1.24249e-18)
(-4.87242 0.916862 9.62239e-20)
(-5.39942 0.805603 3.22499e-19)
(-5.99447 0.70647 5.36817e-19)
(-6.63748 0.665465 -8.92317e-20)
(-7.29049 0.687692 -4.82994e-19)
(-7.89138 0.749633 5.07602e-19)
(-8.40056 0.818748 -9.55945e-19)
(-8.8151 0.880613 -7.44399e-19)
(-9.11917 0.924775 6.0735e-18)
(-9.30651 0.942709 -4.38553e-18)
(-9.37305 0.94192 -1.11676e-18)
(-9.32579 0.916476 8.00278e-18)
(-9.17337 0.880952 6.32994e-18)
(-8.92949 0.829175 -3.09566e-18)
(-8.6086 0.7714 -2.52088e-18)
(-8.2251 0.703275 -7.97218e-19)
(-7.7941 0.631035 6.27762e-18)
(-7.32773 0.548924 6.483e-18)
(-6.83892 0.452732 1.80705e-18)
(-6.33975 0.33064 -2.35484e-18)
(-5.83236 0.172626 -3.03698e-19)
(-5.28812 -0.0309261 -1.5139e-18)
(-4.67781 -0.307244 -3.14091e-18)
(-4.06395 -0.691846 -1.36446e-19)
(-3.52673 -1.03813 1.98842e-18)
(2.36977 6.3772 -2.55955e-20)
(2.70642 6.86923 1.55827e-19)
(2.99381 7.34176 6.97418e-20)
(3.34706 8.01515 3.66019e-19)
(3.69817 8.54113 1.56066e-19)
(3.70837 8.00182 -6.37423e-19)
(2.9106 5.70443 2.31737e-19)
(1.27265 2.74304 -2.24613e-19)
(-0.607054 1.15904 -2.65666e-18)
(-2.08196 0.465222 -4.77021e-20)
(-2.82598 -0.523681 -5.78856e-18)
(-3.00035 -1.11777 3.72365e-18)
(-2.80103 -0.660749 -3.28382e-18)
(-3.00069 0.134874 -4.4223e-19)
(-3.66345 0.727123 1.70085e-18)
(-4.16046 1.04819 -5.63691e-19)
(-4.55893 1.09823 2.05137e-18)
(-5.01195 1.00952 -8.567e-19)
(-5.58667 0.916634 1.81367e-19)
(-6.23871 0.863709 -2.06281e-19)
(-6.91716 0.861986 2.45565e-19)
(-7.54974 0.894432 -3.34741e-19)
(-8.08893 0.93421 2.0897e-18)
(-8.52904 0.967136 -7.34764e-19)
(-8.85622 0.980307 -2.17282e-18)
(-9.06443 0.966828 1.156e-18)
(-9.15057 0.931383 4.06837e-18)
(-9.12066 0.873796 -2.14685e-18)
(-8.98394 0.805523 7.24899e-20)
(-8.75458 0.726655 -1.76893e-18)
(-8.44779 0.644393 6.2915e-20)
(-8.07897 0.557431 -2.9556e-18)
(-7.66419 0.468817 -2.28843e-20)
(-7.21725 0.373806 1.35771e-18)
(-6.75254 0.267193 4.41073e-18)
(-6.28433 0.138959 -3.34605e-18)
(-5.81866 -0.0193983 -3.72495e-18)
(-5.3406 -0.21774 2.8771e-18)
(-4.845 -0.481286 -1.00099e-18)
(-4.39963 -0.832952 1.86248e-20)
(-4.05572 -1.14794 1.01095e-19)
(2.77652 6.07828 -8.30682e-21)
(3.04088 6.52373 -2.02699e-20)
(3.28093 6.93664 5.10487e-21)
(3.51957 7.36141 -2.71465e-19)
(3.78984 7.95485 -1.14202e-19)
(4.02802 8.50871 -1.43695e-19)
(3.9051 8.15299 8.9797e-19)
(3.03408 6.32678 1.1266e-19)
(1.33078 3.80088 8.12472e-19)
(-0.746412 1.686 -2.34496e-18)
(-2.20747 0.0899259 3.18392e-18)
(-2.96416 -1.06325 2.41015e-18)
(-3.14461 -0.940285 -3.62376e-18)
(-3.07259 0.0330759 4.26153e-18)
(-3.41918 0.783433 1.07903e-19)
(-3.72609 1.16532 -5.75111e-19)
(-4.03445 1.28142 -2.33445e-18)
(-4.46568 1.24431 -1.97815e-19)
(-5.03628 1.17196 -9.92034e-19)
(-5.70412 1.11339 3.55174e-18)
(-6.41528 1.0881 -2.50808e-18)
(-7.08847 1.08681 3.95298e-19)
(-7.66753 1.09 1.08253e-18)
(-8.14338 1.08488 2.29028e-19)
(-8.50341 1.05866 5.36732e-19)
(-8.74162 1.00527 2.75547e-19)
(-8.85566 0.928265 1.6115e-18)
(-8.85083 0.83075 -1.03329e-18)
(-8.73669 0.723686 -4.32131e-18)
(-8.5278 0.611273 -1.28551e-18)
(-8.24008 0.499841 3.67299e-18)
(-7.88975 0.389365 1.71245e-18)
(-7.4935 0.281204 1.39812e-19)
(-7.06625 0.17067 -3.14636e-18)
(-6.62302 0.0521929 -1.70277e-18)
(-6.17912 -0.0822573 1.09528e-18)
(-5.74306 -0.239315 2.51925e-18)
(-5.31078 -0.42782 -1.34358e-18)
(-4.89466 -0.66878 8.25963e-19)
(-4.56397 -0.973483 -1.63459e-18)
(-4.36195 -1.24972 -2.14314e-19)
(3.16827 5.81774 -1.94865e-20)
(3.38678 6.20183 -1.2207e-19)
(3.58629 6.58335 1.84162e-19)
(3.78428 6.94169 4.18864e-20)
(3.98278 7.32146 -6.96795e-20)
(4.19661 7.90194 4.7569e-20)
(4.37066 8.53545 -3.1091e-19)
(4.26776 8.51572 -4.09823e-19)
(3.5582 7.3001 2.57648e-20)
(2.02455 5.0742 -1.29861e-18)
(0.0421171 2.34954 -9.02319e-19)
(-1.74472 -0.183248 2.99494e-18)
(-2.60916 -0.953972 1.22304e-18)
(-2.7902 -0.22565 -3.21686e-18)
(-2.76473 0.778924 5.60979e-18)
(-2.98865 1.2713 -1.72391e-18)
(-3.28389 1.48482 1.56929e-18)
(-3.72203 1.51842 -2.58552e-18)
(-4.29898 1.48223 -1.73979e-19)
(-4.98615 1.42781 1.09346e-18)
(-5.7339 1.38169 -1.48053e-18)
(-6.45413 1.34333 -2.64236e-19)
(-7.08244 1.30131 5.5637e-19)
(-7.606 1.24717 -1.89956e-18)
(-8.0125 1.17085 -6.08141e-19)
(-8.29523 1.06797 -1.81994e-18)
(-8.45137 0.941049 -3.69703e-18)
(-8.48459 0.795913 1.5523e-18)
(-8.40416 0.642048 1.13713e-18)
(-8.22455 0.488242 3.76267e-18)
(-7.96256 0.339655 -1.47819e-18)
(-7.63516 0.198194 1.12253e-18)
(-7.2597 0.0637864 -1.31307e-18)
(-6.85191 -0.0673867 3.14919e-18)
(-6.42733 -0.200889 -3.51679e-19)
(-6.00183 -0.342623 7.8745e-19)
(-5.58604 -0.497519 -3.93383e-18)
(-5.18369 -0.673139 2.41387e-18)
(-4.8138 -0.883611 -1.72476e-19)
(-4.53687 -1.13034 1.04202e-18)
(-4.39064 -1.35048 -1.00642e-18)
(3.54272 5.5826 -1.07137e-19)
(3.73181 5.92079 3.96678e-19)
(3.89965 6.25142 -1.37067e-19)
(4.06838 6.58674 -6.14719e-20)
(4.24269 6.90638 1.23928e-19)
(4.42174 7.2675 -3.59751e-19)
(4.62271 7.83775 9.7861e-20)
(4.82771 8.54716 1.525e-18)
(4.90928 8.87331 -1.77887e-18)
(4.55849 8.20898 -3.53503e-19)
(3.53132 6.35293 7.23602e-20)
(1.81655 3.58257 1.74685e-19)
(-0.50863 0.624975 3.47385e-18)
(-1.93166 -0.338537 -1.40572e-18)
(-1.93622 0.508358 3.83598e-18)
(-2.03221 1.30976 -2.54254e-18)
(-2.29244 1.7207 6.56017e-19)
(-2.73667 1.84874 -5.11567e-19)
(-3.32179 1.86328 9.27086e-19)
(-4.02681 1.82476 9.38228e-19)
(-4.80955 1.76412 5.9733e-19)
(-5.57832 1.68836 -1.08389e-18)
(-6.26222 1.59402 1.38262e-18)
(-6.84482 1.47925 9.45544e-19)
(-7.31345 1.33973 -2.55438e-18)
(-7.65968 1.17432 1.97707e-18)
(-7.8775 0.986788 2.55957e-18)
(-7.96763 0.781481 -3.31313e-18)
(-7.93727 0.56927 4.49159e-19)
(-7.80005 0.360076 -3.02533e-18)
(-7.5735 0.16203 1.56498e-18)
(-7.27553 -0.0229774 -2.07517e-18)
(-6.92458 -0.193286 -6.5687e-19)
(-6.53729 -0.352285 1.6758e-19)
(-6.12987 -0.504056 -1.40817e-18)
(-5.71866 -0.652863 3.90122e-19)
(-5.3172 -0.803339 1.10278e-18)
(-4.93487 -0.962195 -1.51855e-18)
(-4.59139 -1.13845 -2.36711e-19)
(-4.33012 -1.32448 -1.64584e-18)
(-4.17193 -1.47697 1.04857e-18)
(3.90011 5.36754 -1.10176e-19)
(4.06937 5.66518 -3.18505e-19)
(4.2173 5.95693 3.31486e-20)
(4.36214 6.25101 8.72879e-20)
(4.51624 6.55081 -1.24638e-19)
(4.6811 6.84597 -2.74577e-19)
(4.86429 7.18675 7.53819e-20)
(5.0897 7.70804 9.39342e-20)
(5.39082 8.41042 1.25486e-19)
(5.69752 8.90695 1.78345e-18)
(5.76234 8.64242 6.98615e-19)
(5.26504 7.34572 2.30155e-19)
(3.88258 5.13731 -2.02649e-18)
(1.7846 2.71721 6.0278e-18)
(-0.193161 1.02922 -6.16676e-18)
(-0.851559 1.16259 3.48282e-18)
(-1.09004 1.82386 -2.78771e-18)
(-1.50781 2.18492 -5.52588e-18)
(-2.06971 2.31556 -3.97221e-20)
(-2.77068 2.31817 3.91053e-18)
(-3.57314 2.25541 -2.15647e-18)
(-4.38135 2.14703 2.92292e-18)
(-5.11842 1.99876 -1.50853e-18)
(-5.76409 1.81512 3.59263e-19)
(-6.30545 1.59926 -1.92969e-19)
(-6.73116 1.35707 -1.99066e-18)
(-7.0319 1.09302 1.83946e-18)
(-7.20203 0.811516 -1.7055e-18)
(-7.24414 0.521736 1.47309e-18)
(-7.16915 0.237194 9.70847e-19)
(-6.99376 -0.0303401 1.53861e-19)
(-6.73707 -0.275632 8.57824e-19)
(-6.41823 -0.495356 4.9729e-19)
(-6.05622 -0.691032 -2.28846e-18)
(-5.66771 -0.865334 -1.34235e-18)
(-5.27097 -1.02183 9.88534e-19)
(-4.88156 -1.16476 1.13298e-18)
(-4.51392 -1.30219 1.86134e-19)
(-4.18694 -1.43983 2.09582e-18)
(-3.93058 -1.57025 1.37774e-18)
(-3.74759 -1.66019 2.98558e-19)
(4.23969 5.16755 -1.24256e-19)
(4.39553 5.43002 7.03289e-20)
(4.53184 5.68767 2.30614e-19)
(4.66105 5.94653 -1.61985e-19)
(4.79634 6.21089 -5.0021e-20)
(4.94465 6.48161 9.64136e-20)
(5.11168 6.75456 1.14929e-19)
(5.30798 7.05843 -8.69917e-19)
(5.56696 7.48909 -2.11482e-18)
(5.93469 8.06309 2.81688e-18)
(6.37164 8.53591 -1.96811e-18)
(6.68111 8.53529 -5.51438e-19)
(6.5386 7.84658 -1.03585e-18)
(5.68224 6.51577 -6.15809e-19)
(4.06567 4.71861 1.77161e-18)
(2.26037 3.09162 -9.329e-19)
(0.929285 2.36117 4.49606e-18)
(0.134195 2.47596 -3.77862e-18)
(-0.502924 2.75541 -1.76663e-18)
(-1.18835 2.87995 7.33652e-18)
(-1.97244 2.85756 -3.38986e-18)
(-2.78808 2.73636 -3.712e-19)
(-3.55634 2.54193 5.17652e-19)
(-4.25218 2.28724 2.68682e-18)
(-4.86033 1.98524 -2.51642e-18)
(-5.36892 1.65096 -6.54921e-19)
(-5.76429 1.2907 -8.40022e-19)
(-6.03475 0.911845 4.95271e-18)
(-6.17383 0.519749 -2.47545e-18)
(-6.18646 0.133089 -7.15697e-19)
(-6.08528 -0.230087 2.87609e-18)
(-5.88827 -0.556863 -2.44733e-18)
(-5.61637 -0.843093 -1.15462e-18)
(-5.29009 -1.08691 1.50785e-18)
(-4.9294 -1.29165 1.13715e-18)
(-4.55388 -1.46009 2.31805e-19)
(-4.18206 -1.59754 -5.61177e-19)
(-3.8305 -1.71163 -3.32329e-19)
(-3.51576 -1.80796 -1.1238e-18)
(-3.26414 -1.88447 9.95226e-19)
(-3.07232 -1.92282 -1.49487e-19)
(4.56036 4.97852 1.9411e-19)
(4.70749 5.21036 -4.03571e-19)
(4.83668 5.43682 3.66164e-19)
(4.95832 5.66494 2.10391e-20)
(5.08064 5.89714 7.21201e-20)
(5.21261 6.13511 1.63193e-19)
(5.36083 6.37964 8.76642e-19)
(5.53219 6.62551 4.16414e-19)
(5.73736 6.88377 2.02424e-19)
(6.00425 7.2031 1.41812e-19)
(6.36362 7.5998 -8.59312e-19)
(6.79161 7.96497 1.26996e-18)
(7.15203 8.11306 -1.16542e-19)
(7.24288 7.92879 1.33582e-18)
(6.83963 7.32724 -3.85056e-18)
(5.85117 6.26601 4.44137e-18)
(4.45724 4.97988 -1.36505e-18)
(3.0172 3.97666 -4.94724e-18)
(1.82599 3.55717 3.94952e-18)
(0.893321 3.51688 -4.59255e-18)
(0.0574545 3.52629 2.74074e-18)
(-0.749308 3.43423 -1.07916e-18)
(-1.50964 3.22994 3.70153e-18)
(-2.21414 2.92022 -1.03384e-18)
(-2.85371 2.53372 -6.11069e-18)
(-3.41892 2.09164 3.19352e-18)
(-3.89526 1.61235 1.53634e-18)
(-4.26557 1.10753 -4.26614e-19)
(-4.51396 0.591942 3.45653e-19)
(-4.63172 0.0779081 -1.26348e-18)
(-4.62549 -0.40612 -6.03383e-18)
(-4.50951 -0.841756 6.49701e-18)
(-4.30499 -1.21717 -4.95048e-19)
(-4.03461 -1.52927 -1.90012e-18)
(-3.72146 -1.78077 2.16355e-18)
(-3.38757 -1.97471 -3.19034e-19)
(-3.05333 -2.1187 -4.68827e-19)
(-2.73514 -2.21822 1.08566e-18)
(-2.44535 -2.28109 4.23649e-19)
(-2.20681 -2.30686 -9.28049e-19)
(-2.0296 -2.29752 -4.23983e-19)
(4.86085 4.79727 7.95808e-21)
(5.00203 5.00119 1.85515e-19)
(5.12746 5.19948 2.16832e-19)
(5.24529 5.39799 -2.91059e-19)
(5.36247 5.60045 4.50506e-20)
(5.48461 5.80781 -7.4275e-19)
(5.61769 6.02049 -4.64618e-19)
(5.7676 6.2375 -5.03749e-19)
(5.94001 6.45309 8.49174e-19)
(6.14261 6.66585 2.32513e-18)
(6.38906 6.89255 -8.484e-19)
(6.69426 7.15009 1.56952e-18)
(7.04426 7.41141 -2.98307e-20)
(7.37741 7.62521 -2.89399e-18)
(7.58883 7.74517 -1.15599e-18)
(7.53417 7.66395 2.75499e-18)
(7.09156 7.23311 -1.61343e-18)
(6.24051 6.46093 2.53557e-18)
(5.10695 5.59847 -4.03731e-18)
(3.91706 4.92532 3.11219e-20)
(2.83232 4.51481 -7.38499e-19)
(1.91275 4.2558 9.3621e-18)
(1.12758 4.00242 4.88952e-19)
(0.43067 3.66841 -4.7239e-18)
(-0.201421 3.23813 -8.27019e-19)
(-0.772995 2.72468 -1.5039e-18)
(-1.27429 2.14537 -5.5806e-18)
(-1.69231 1.51583 6.94535e-18)
(-2.01298 0.86304 -6.00849e-18)
(-2.21805 0.200218 -1.46678e-19)
(-2.30285 -0.442283 1.81583e-18)
(-2.27665 -1.02782 -7.81093e-19)
(-2.15742 -1.53377 9.65286e-19)
(-1.96972 -1.95181 -2.04393e-19)
(-1.73611 -2.28139 4.1014e-18)
(-1.48055 -2.52767 -3.85486e-18)
(-1.22154 -2.69789 3.98633e-19)
(-0.976713 -2.80247 1.6964e-19)
(-0.754006 -2.8488 1.76659e-19)
(-0.559685 -2.84359 -1.11709e-19)
(-0.445621 -2.78937 8.58577e-19)
(5.13943 4.62161 -3.30423e-19)
(5.27588 4.79955 1.4718e-19)
(5.39881 4.97143 -4.09083e-19)
(5.51449 5.14215 6.05664e-21)
(5.62902 5.31503 9.20576e-20)
(5.74647 5.49171 -2.91405e-19)
(5.87131 5.67294 -9.84277e-20)
(6.00755 5.85819 2.14779e-19)
(6.15908 6.04566 -1.95563e-18)
(6.32965 6.23013 1.06351e-18)
(6.52259 6.40575 1.08624e-19)
(6.74287 6.57716 -5.92959e-18)
(6.99614 6.75595 3.73327e-18)
(7.27899 6.94803 2.81102e-19)
(7.57659 7.16439 3.33678e-18)
(7.8528 7.4097 -3.03705e-18)
(8.0346 7.61453 4.45332e-19)
(8.02083 7.63625 2.67231e-18)
(7.72505 7.3791 -3.05147e-18)
(7.13278 6.88131 1.29863e-18)
(6.31672 6.26753 5.49716e-19)
(5.44608 5.67151 -1.07219e-18)
(4.64058 5.12918 3.11632e-19)
(3.93187 4.6012 -1.27533e-18)
(3.31623 4.04037 7.31011e-18)
(2.78095 3.42051 -9.78298e-18)
(2.32057 2.73392 8.305e-18)
(1.93071 1.99324 2.41127e-18)
(1.60745 1.21939 -3.6975e-18)
(1.35894 0.436226 -1.62112e-18)
(1.21518 -0.348856 -9.34167e-19)
(1.16792 -1.09051 5.82305e-18)
(1.19306 -1.74596 -1.03814e-18)
(1.26927 -2.291 -7.11469e-18)
(1.37849 -2.71719 1.75225e-18)
(1.50405 -3.02778 1.93997e-18)
(1.63275 -3.23086 -1.69329e-18)
(1.75009 -3.34222 1.53516e-18)
(1.85021 -3.37384 5.13579e-19)
(1.93561 -3.34064 2.33799e-19)
(1.95303 -3.2534 -1.12712e-18)
(5.39419 4.45059 2.3191e-19)
(5.52596 4.60443 -2.24185e-19)
(5.64622 4.75178 4.33606e-19)
(5.75985 4.8968 1.10137e-19)
(5.87168 5.04235 4.15619e-19)
(5.9854 5.18997 8.18972e-19)
(6.10404 5.34048 -8.1737e-19)
(6.23155 5.49404 1.36419e-19)
(6.37046 5.65003 6.02222e-19)
(6.52313 5.80686 -1.60747e-19)
(6.69145 5.96067 2.44993e-18)
(6.87682 6.10749 -3.36863e-18)
(7.0813 6.24757 5.68608e-18)
(7.3072 6.38588 -4.29392e-18)
(7.55811 6.53219 -2.02784e-18)
(7.84029 6.71076 -7.76162e-19)
(8.15589 6.9485 -1.39835e-18)
(8.48585 7.2279 1.34598e-18)
(8.77699 7.46594 1.10321e-19)
(8.95934 7.55986 1.14387e-18)
(8.9643 7.43361 -6.18399e-19)
(8.78673 7.09139 8.28518e-19)
(8.47535 6.58423 3.53386e-18)
(8.09698 5.957 -4.16146e-18)
(7.70382 5.23903 2.37609e-18)
(7.32666 4.44614 2.72628e-18)
(6.98137 3.58782 5.07856e-19)
(6.67366 2.67772 -1.11507e-17)
(6.40419 1.73697 2.54896e-18)
(6.17139 0.792373 5.26858e-18)
(5.96891 -0.127895 -3.66923e-18)
(5.81297 -0.983434 7.00917e-18)
(5.68311 -1.73293 -6.40512e-18)
(5.56385 -2.35241 7.99742e-19)
(5.44832 -2.83374 1.73615e-18)
(5.33267 -3.17987 -1.80698e-18)
(5.21592 -3.40227 8.2843e-19)
(5.09243 -3.51893 -1.34477e-19)
(4.96384 -3.54702 -1.24547e-18)
(4.83875 -3.50263 -1.02516e-20)
(4.67738 -3.40789 2.49976e-20)
(5.62351 4.28388 1.82777e-20)
(5.74999 4.41565 -1.03875e-19)
(5.86668 4.54073 3.68672e-20)
(5.97739 4.66273 -4.6896e-20)
(6.086 4.78408 -2.24652e-19)
(6.19547 4.90619 -7.74842e-20)
(6.3084 5.02988 -1.45549e-18)
(6.42769 5.15502 7.77871e-19)
(6.55619 5.28128 -2.15411e-19)
(6.69587 5.40797 1.95829e-18)
(6.8483 5.53379 -4.67203e-19)
(7.01482 5.65705 -3.57066e-19)
(7.1968 5.77549 2.40676e-18)
(7.39546 5.88811 -9.4743e-19)
(7.61315 5.9952 -1.35268e-18)
(7.85532 6.10052 -1.13883e-18)
(8.13371 6.21849 -8.28876e-19)
(8.46491 6.37151 6.10253e-18)
(8.85929 6.56774 -6.46124e-18)
(9.31151 6.78188 -1.84922e-19)
(9.78807 6.94885 4.14576e-18)
(10.2292 6.98707 -4.07699e-18)
(10.586 6.84684 4.12832e-18)
(10.8473 6.51193 -1.88934e-18)
(11.0155 5.9903 -2.42529e-18)
(11.1013 5.30679 6.86147e-18)
(11.1169 4.4947 -2.52233e-18)
(11.0723 3.59137 3.72488e-18)
(10.9726 2.63688 -9.86975e-18)
(10.8236 1.67351 1.27051e-18)
(10.6303 0.740748 3.9995e-18)
(10.3819 -0.131295 -5.42254e-19)
(10.0902 -0.907955 -7.74033e-19)
(9.76238 -1.56409 2.30687e-19)
(9.40868 -2.08755 -1.3402e-19)
(9.04079 -2.47755 4.12788e-19)
(8.66999 -2.74303 -1.25217e-18)
(8.30023 -2.90202 8.89264e-19)
(7.93866 -2.97048 -4.50902e-19)
(7.59588 -2.96394 3.64819e-19)
(7.25335 -2.90839 2.6911e-20)
(5.81856 4.12962 -1.44923e-21)
(5.93916 4.24209 -2.5665e-19)
(6.05145 4.34785 9.47688e-20)
(6.15843 4.45013 2.61371e-21)
(6.26321 4.55098 2.08886e-19)
(6.36819 4.65163 1.68697e-18)
(6.47565 4.75283 -4.45815e-20)
(6.58758 4.85474 -3.49129e-18)
(6.70653 4.95656 1.27912e-19)
(6.83457 5.05745 3.68391e-18)
(6.97325 5.15651 -4.56689e-18)
(7.12403 5.25311 1.2316e-18)
(7.28848 5.34611 1.03908e-18)
(7.46785 5.43401 -1.76345e-18)
(7.66371 5.51537 4.20697e-18)
(7.87826 5.58808 -5.24898e-19)
(8.116 5.65024 -1.23523e-17)
(8.38612 5.70377 1.06034e-17)
(8.70335 5.75531 -3.97731e-18)
(9.08488 5.81089 -3.05891e-18)
(9.54355 5.86598 3.77525e-18)
(10.0589 5.89018 4.15392e-18)
(10.5907 5.84681 -6.19306e-18)
(11.1091 5.69775 6.06604e-18)
(11.5828 5.4148 -1.62204e-18)
(11.9847 4.98822 1.67153e-18)
(12.2956 4.42815 -3.10957e-18)
(12.5035 3.76033 3.304e-18)
(12.6029 3.02076 1.15004e-18)
(12.595 2.25088 -6.24402e-18)
(12.486 1.49198 7.92218e-19)
(12.2854 0.779058 -2.44843e-19)
(12.0045 0.137857 3.1844e-18)
(11.6561 -0.41519 -3.07882e-20)
(11.2571 -0.870656 -2.58516e-19)
(10.8272 -1.22644 -3.40965e-19)
(10.3839 -1.48721 -1.5449e-19)
(9.93874 -1.66578 -2.337e-19)
(9.50197 -1.77195 -5.90769e-19)
(9.08443 -1.81603 5.85306e-20)
(8.68622 -1.81796 8.27014e-20)
(5.97623 3.99362 1.25366e-19)
(6.09076 4.08979 1.1966e-19)
(6.19815 4.17926 -1.97884e-19)
(6.3008 4.26497 1.84445e-19)
(6.40123 4.34866 2.46836e-19)
(6.50146 4.43139 1.33752e-18)
(6.60343 4.51381 -1.55313e-18)
(6.7089 4.59613 8.80951e-19)
(6.81952 4.67801 1.52661e-18)
(6.93738 4.75829 -2.9047e-18)
(7.06389 4.83589 -3.26181e-18)
(7.20038 4.91008 3.89305e-18)
(7.34837 4.97996 3.26703e-18)
(7.50915 5.04426 -4.81493e-18)
(7.68411 5.10149 5.55463e-18)
(7.87468 5.14971 3.7701e-18)
(8.08259 5.1859 -2.85309e-18)
(8.31015 5.20571 -4.76407e-18)
(8.56167 5.20442 -6.41922e-19)
(8.8438 5.17744 3.94605e-18)
(9.16648 5.12149 -7.88942e-18)
(9.52566 5.03234 6.2243e-18)
(9.90877 4.90674 8.29561e-19)
(10.3047 4.73357 1.76006e-18)
(10.6937 4.50098 -3.01577e-18)
(11.0523 4.19939 1.50427e-18)
(11.3567 3.82686 -1.34426e-18)
(11.5872 3.39035 -9.26756e-19)
(11.7301 2.90576 1.85607e-18)
(11.779 2.39511 -1.2313e-18)
(11.7347 1.88291 -6.29454e-19)
(11.6052 1.39234 2.31559e-18)
(11.4014 0.942057 -3.03347e-18)
(11.1396 0.544066 1.51633e-18)
(10.8348 0.204856 5.9805e-20)
(10.5021 -0.0734655 -1.61293e-18)
(10.154 -0.292327 1.07053e-18)
(9.80102 -0.458734 1.61838e-19)
(9.4516 -0.576879 -4.47664e-19)
(9.11401 -0.651958 -1.25681e-19)
(8.79399 -0.69495 -8.76989e-20)
(6.10487 3.87344 -8.05395e-20)
(6.21323 3.95575 2.27869e-21)
(6.31537 4.0314 -1.48009e-20)
(6.41318 4.10314 2.18832e-19)
(6.50879 4.17241 -4.38294e-19)
(6.60389 4.24014 3.77181e-19)
(6.70017 4.30689 3.63762e-19)
(6.79914 4.37276 -8.57277e-19)
(6.9022 4.43762 1.81895e-19)
(7.01084 4.50057 3.8968e-19)
(7.12639 4.56042 -1.28285e-18)
(7.24989 4.61632 1.97232e-18)
(7.38254 4.66715 -4.21838e-18)
(7.52538 4.71171 2.58742e-18)
(7.67948 4.74842 1.55275e-18)
(7.84587 4.77556 1.05248e-18)
(8.02563 4.79075 4.49738e-19)
(8.21958 4.79082 -7.53329e-19)
(8.42845 4.7713 -2.27864e-18)
(8.65254 4.72622 4.54808e-18)
(8.89247 4.6485 2.48495e-19)
(9.14009 4.53371 -5.08151e-18)
(9.38689 4.38277 2.2908e-18)
(9.62948 4.19494 2.62216e-18)
(9.86071 3.97123 -5.35159e-18)
(10.0711 3.71334 4.83873e-18)
(10.2497 3.42422 -4.1069e-18)
(10.3859 3.10885 2.14219e-19)
(10.4713 2.77488 1.3063e-18)
(10.501 2.43204 3.26456e-18)
(10.4743 2.09113 -4.29486e-18)
(10.3945 1.76268 1.25106e-18)
(10.2674 1.45563 2.14671e-18)
(10.1015 1.1761 -1.73681e-18)
(9.90518 0.928647 -1.95408e-19)
(9.68789 0.716134 -5.27515e-20)
(9.45848 0.539444 2.87357e-19)
(9.22351 0.395398 -2.00724e-19)
(8.98806 0.282537 1.18507e-19)
(8.75734 0.198472 -2.07723e-19)
(8.53602 0.137986 -1.32134e-20)
(6.21083 3.76643 2.81791e-20)
(6.31294 3.83689 1.45688e-19)
(6.40953 3.90083 -2.25798e-19)
(6.50217 3.96073 1.46457e-19)
(6.59255 4.01786 8.25079e-20)
(6.68218 4.07299 -2.74205e-19)
(6.77253 4.12663 -7.84743e-19)
(6.86489 4.17879 5.14815e-19)
(6.96046 4.22929 1.16979e-18)
(7.06029 4.27756 4.48192e-20)
(7.16558 4.32249 3.39592e-19)
(7.27717 4.36314 1.35871e-18)
(7.39585 4.39854 -9.79409e-19)
(7.52226 4.42735 -1.85189e-18)
(7.65705 4.44815 1.58754e-19)
(7.80077 4.45919 -5.65906e-19)
(7.95394 4.45856 1.43147e-18)
(8.11686 4.44373 -1.35078e-18)
(8.28958 4.41179 -9.44223e-19)
(8.47143 4.35876 -2.67725e-18)
(8.66105 4.28007 3.42274e-18)
(8.84945 4.17291 1.67803e-18)
(9.02812 4.03835 -1.80335e-18)
(9.19347 3.87554 -1.77548e-18)
(9.34093 3.68648 -1.00438e-18)
(9.46627 3.47442 3.58387e-18)
(9.56552 3.24411 2.14061e-18)
(9.63532 3.00077 1.89847e-18)
(9.67314 2.75036 -4.13984e-18)
(9.67799 2.49877 1.29174e-18)
(9.65023 2.2519 -1.59346e-18)
(9.59201 2.01503 8.69033e-19)
(9.5065 1.79274 -1.32774e-18)
(9.39797 1.58812 2.02952e-18)
(9.27075 1.4036 -1.04187e-18)
(9.12981 1.24091 3.91254e-19)
(8.97966 1.10068 -8.49764e-19)
(8.82404 0.981356 6.62232e-19)
(8.66609 0.882388 -5.0389e-19)
(8.50891 0.802695 -1.29053e-20)
(8.35623 0.739941 7.82888e-20)
(6.29885 3.67058 -4.26936e-20)
(6.39475 3.73095 3.44482e-20)
(6.48567 3.78488 2.5381e-19)
(6.57293 3.83477 -7.1144e-19)
(6.65786 3.88165 -2.29251e-19)
(6.74184 3.92624 7.71834e-20)
(6.82607 3.96896 7.03836e-19)
(6.91174 4.00979 -1.06361e-18)
(6.99978 4.04852 4.78411e-18)
(7.09109 4.08468 -6.48477e-18)
(7.18648 4.11734 3.0584e-18)
(7.28677 4.14555 8.14654e-19)
(7.39246 4.16852 -1.09742e-18)
(7.50395 4.18503 -4.21398e-18)
(7.62144 4.19394 1.08346e-18)
(7.74518 4.1936 -2.36831e-18)
(7.87512 4.18249 7.62166e-18)
(8.01117 4.1585 -2.08923e-18)
(8.15284 4.11957 -4.54321e-19)
(8.2993 4.0629 1.46364e-18)
(8.44911 3.98588 -7.09391e-18)
(8.59532 3.88785 4.29971e-18)
(8.73142 3.7712 2.57388e-18)
(8.85474 3.63567 -2.41519e-18)
(8.96177 3.483 -6.03174e-19)
(9.04972 3.31538 2.14554e-18)
(9.1164 3.13628 -3.45199e-18)
(9.16048 2.94932 2.45811e-18)
(9.18141 2.75877 2.05532e-18)
(9.17947 2.56858 -1.5465e-18)
(9.15586 2.38268 -2.56028e-18)
(9.11238 2.20435 2.72286e-19)
(9.0514 2.03643 1.26691e-18)
(8.97551 1.88068 5.30397e-19)
(8.88747 1.73854 -1.39105e-18)
(8.79012 1.61107 1.41225e-18)
(8.68623 1.49875 -8.92088e-19)
(8.57787 1.40053 3.78532e-19)
(8.46714 1.31618 9.81886e-20)
(8.3556 1.24506 -3.13737e-19)
(8.24648 1.18639 -3.91169e-20)
(6.37244 3.58441 -1.53551e-19)
(6.46221 3.63609 1.31368e-19)
(6.54747 3.68153 -6.76221e-20)
(6.62926 3.72296 -3.87411e-19)
(6.7087 3.76125 1.10275e-18)
(6.78697 3.79707 -1.8054e-18)
(6.86513 3.8308 2.24494e-18)
(6.9442 3.86242 -5.94315e-18)
(7.02493 3.89171 6.78425e-18)
(7.10804 3.91822 -3.23732e-18)
(7.19404 3.94135 -4.42035e-18)
(7.28365 3.96005 1.35046e-18)
(7.37725 3.97355 5.41055e-18)
(7.47504 3.98092 2.7179e-18)
(7.57703 3.98118 -4.88566e-18)
(7.68317 3.9731 3.59618e-18)
(7.79323 3.9554 -2.79357e-18)
(7.90677 3.92654 -6.5503e-19)
(8.02308 3.88493 7.9918e-19)
(8.14111 3.82872 -3.66311e-18)
(8.25948 3.75615 9.12841e-18)
(8.37275 3.66776 -4.17476e-18)
(8.47644 3.56619 3.45338e-19)
(8.56895 3.45203 1.06039e-18)
(8.64817 3.32688 -1.02078e-18)
(8.71244 3.19275 5.1886e-19)
(8.7606 3.05199 1.32538e-18)
(8.79199 2.90716 -1.3925e-19)
(8.80658 2.76092 -1.32376e-19)